<?xml version="1.0" encoding="ISO-8859-1"?>
<modeling>
 <generator>
  <i name="program" type="string">vasp </i>
  <i name="version" type="string">5.4.4.18Apr17-6-g9f103f2a35  </i>
  <i name="subversion" type="string">(build Jun 11 2017 21:30:58) complex            parallel </i>
  <i name="platform" type="string">LinuxIFC </i>
  <i name="date" type="string">2022 07 07 </i>
  <i name="time" type="string">14:37:14 </i>
 </generator>
 <incar>
  <i type="string" name="PREC">accurate</i>
  <i type="string" name="ALGO"> Normal</i>
  <i type="logical" name="ADDGRID"> T  </i>
  <i type="int" name="NELM">   100</i>
  <i type="int" name="NELMIN">     4</i>
  <i type="int" name="IBRION">     2</i>
  <i name="EDIFF">      0.00005000</i>
  <i name="EDIFFG">     -0.01000000</i>
  <i type="int" name="NSW">   200</i>
  <i type="int" name="ISIF">     3</i>
  <i name="ENCUT">    520.00000000</i>
  <i type="logical" name="LREAL"> F  </i>
  <i type="int" name="ISMEAR">     1</i>
  <i name="SIGMA">      0.05000000</i>
  <i type="logical" name="LWAVE"> F  </i>
  <i type="logical" name="LCHARG"> F  </i>
  <i type="logical" name="LASPH"> T  </i>
  <v type="int" name="KPOINT_BSE">    -1     0     0     0</v>
  <i type="int" name="NELM">   100</i>
  <i type="logical" name="LASPH"> T  </i>
 </incar>
 <structure name="primitive_cell" >
  <crystal>
   <varray name="basis" >
    <v>       2.02168210       2.02168210       0.00000000 </v>
    <v>       2.02168210       0.00000000      -2.02168210 </v>
    <v>       0.00000000       2.02168210      -2.02168210 </v>
   </varray>
   <i name="volume">     16.52603220 </i>
   <varray name="rec_basis" >
    <v>       0.24731880       0.24731880       0.24731880 </v>
    <v>       0.24731880      -0.24731880      -0.24731880 </v>
    <v>      -0.24731880       0.24731880      -0.24731880 </v>
   </varray>
  </crystal>
  <varray name="positions" >
   <v>       0.00000000       0.00000000       0.00000000 </v>
  </varray>
 </structure>
 <varray name="primitive_index" >
  <v type="int" >        1 </v>
 </varray>
 <kpoints>
  <generation param="Gamma">
   <v type="int" name="divisions">      11       11       11 </v>
   <v name="usershift">      0.00000000       0.00000000       0.00000000 </v>
   <v name="genvec1">      0.09090909       0.00000000       0.00000000 </v>
   <v name="genvec2">      0.00000000       0.09090909       0.00000000 </v>
   <v name="genvec3">      0.00000000       0.00000000       0.09090909 </v>
   <v name="shift">      0.00000000       0.00000000       0.00000000 </v>
  </generation>
  <varray name="kpointlist" >
   <v>       0.00000000       0.00000000       0.00000000 </v>
   <v>       0.09090909       0.00000000       0.00000000 </v>
   <v>       0.18181818       0.00000000       0.00000000 </v>
   <v>       0.27272727       0.00000000       0.00000000 </v>
   <v>       0.36363636       0.00000000       0.00000000 </v>
   <v>       0.45454545       0.00000000       0.00000000 </v>
   <v>       0.09090909       0.09090909       0.00000000 </v>
   <v>       0.18181818       0.09090909       0.00000000 </v>
   <v>       0.27272727       0.09090909       0.00000000 </v>
   <v>       0.36363636       0.09090909       0.00000000 </v>
   <v>       0.45454545       0.09090909       0.00000000 </v>
   <v>       0.18181818       0.18181818       0.00000000 </v>
   <v>       0.27272727       0.18181818       0.00000000 </v>
   <v>       0.36363636       0.18181818       0.00000000 </v>
   <v>       0.45454545       0.18181818       0.00000000 </v>
   <v>       0.27272727       0.27272727       0.00000000 </v>
   <v>       0.36363636       0.27272727       0.00000000 </v>
   <v>       0.45454545       0.27272727       0.00000000 </v>
   <v>       0.36363636       0.36363636       0.00000000 </v>
   <v>       0.45454545       0.36363636       0.00000000 </v>
   <v>       0.45454545       0.45454545       0.00000000 </v>
   <v>       0.09090909       0.09090909       0.09090909 </v>
   <v>       0.18181818       0.09090909       0.09090909 </v>
   <v>       0.27272727       0.09090909       0.09090909 </v>
   <v>       0.36363636       0.09090909       0.09090909 </v>
   <v>       0.45454545       0.09090909       0.09090909 </v>
   <v>       0.18181818       0.18181818       0.09090909 </v>
   <v>       0.27272727       0.18181818       0.09090909 </v>
   <v>       0.36363636       0.18181818       0.09090909 </v>
   <v>       0.45454545       0.18181818       0.09090909 </v>
   <v>       0.27272727       0.27272727       0.09090909 </v>
   <v>       0.36363636       0.27272727       0.09090909 </v>
   <v>       0.45454545       0.27272727       0.09090909 </v>
   <v>       0.36363636       0.36363636       0.09090909 </v>
   <v>       0.45454545       0.36363636       0.09090909 </v>
   <v>       0.45454545       0.45454545       0.09090909 </v>
   <v>       0.18181818       0.18181818       0.18181818 </v>
   <v>       0.27272727       0.18181818       0.18181818 </v>
   <v>       0.36363636       0.18181818       0.18181818 </v>
   <v>       0.45454545       0.18181818       0.18181818 </v>
   <v>       0.27272727       0.27272727       0.18181818 </v>
   <v>       0.36363636       0.27272727       0.18181818 </v>
   <v>       0.45454545       0.27272727       0.18181818 </v>
   <v>       0.36363636       0.36363636       0.18181818 </v>
   <v>       0.45454545       0.36363636       0.18181818 </v>
   <v>       0.45454545       0.45454545       0.18181818 </v>
   <v>       0.27272727       0.27272727       0.27272727 </v>
   <v>       0.36363636       0.27272727       0.27272727 </v>
   <v>       0.45454545       0.27272727       0.27272727 </v>
   <v>       0.36363636       0.36363636       0.27272727 </v>
   <v>       0.45454545       0.36363636       0.27272727 </v>
   <v>       0.45454545       0.45454545       0.27272727 </v>
   <v>       0.36363636       0.36363636       0.36363636 </v>
   <v>       0.45454545       0.36363636       0.36363636 </v>
   <v>       0.45454545       0.45454545       0.36363636 </v>
   <v>       0.45454545       0.45454545       0.45454545 </v>
  </varray>
  <varray name="weights" >
   <v>       0.00075131 </v>
   <v>       0.00450789 </v>
   <v>       0.00450789 </v>
   <v>       0.00450789 </v>
   <v>       0.00450789 </v>
   <v>       0.00450789 </v>
   <v>       0.00901578 </v>
   <v>       0.01803156 </v>
   <v>       0.01803156 </v>
   <v>       0.01803156 </v>
   <v>       0.01803156 </v>
   <v>       0.00901578 </v>
   <v>       0.01803156 </v>
   <v>       0.01803156 </v>
   <v>       0.01803156 </v>
   <v>       0.00901578 </v>
   <v>       0.01803156 </v>
   <v>       0.01803156 </v>
   <v>       0.00901578 </v>
   <v>       0.01803156 </v>
   <v>       0.00901578 </v>
   <v>       0.00601052 </v>
   <v>       0.01803156 </v>
   <v>       0.01803156 </v>
   <v>       0.01803156 </v>
   <v>       0.01803156 </v>
   <v>       0.01803156 </v>
   <v>       0.03606311 </v>
   <v>       0.03606311 </v>
   <v>       0.03606311 </v>
   <v>       0.01803156 </v>
   <v>       0.03606311 </v>
   <v>       0.03606311 </v>
   <v>       0.01803156 </v>
   <v>       0.03606311 </v>
   <v>       0.01803156 </v>
   <v>       0.00601052 </v>
   <v>       0.01803156 </v>
   <v>       0.01803156 </v>
   <v>       0.01803156 </v>
   <v>       0.01803156 </v>
   <v>       0.03606311 </v>
   <v>       0.03606311 </v>
   <v>       0.01803156 </v>
   <v>       0.03606311 </v>
   <v>       0.01803156 </v>
   <v>       0.00601052 </v>
   <v>       0.01803156 </v>
   <v>       0.01803156 </v>
   <v>       0.01803156 </v>
   <v>       0.03606311 </v>
   <v>       0.01803156 </v>
   <v>       0.00601052 </v>
   <v>       0.01803156 </v>
   <v>       0.01803156 </v>
   <v>       0.00601052 </v>
  </varray>
 </kpoints>
 <parameters>
  <separator name="general" >
   <i type="string" name="SYSTEM">unknown system</i>
   <i type="logical" name="LCOMPAT"> F  </i>
  </separator>
  <separator name="electronic" >
   <i type="string" name="PREC">accura</i>
   <i name="ENMAX">    520.00000000</i>
   <i name="ENAUG">    291.05200000</i>
   <i name="EDIFF">      0.00005000</i>
   <i type="int" name="IALGO">    38</i>
   <i type="int" name="IWAVPR">    11</i>
   <i type="int" name="NBANDS">    12</i>
   <i name="NELECT">     12.00000000</i>
   <i type="int" name="TURBO">     0</i>
   <i type="int" name="IRESTART">     0</i>
   <i type="int" name="NREBOOT">     0</i>
   <i type="int" name="NMIN">     0</i>
   <i name="EREF">      0.00000000</i>
   <separator name="electronic smearing" >
    <i type="int" name="ISMEAR">     1</i>
    <i name="SIGMA">      0.05000000</i>
    <i name="KSPACING">      0.50000000</i>
    <i type="logical" name="KGAMMA"> T  </i>
   </separator>
   <separator name="electronic projectors" >
    <i type="logical" name="LREAL"> F  </i>
    <v name="ROPT">      0.00000000</v>
    <i type="int" name="LMAXPAW">  -100</i>
    <i type="int" name="LMAXMIX">     2</i>
    <i type="logical" name="NLSPLINE"> F  </i>
   </separator>
   <separator name="electronic startup" >
    <i type="int" name="ISTART">     0</i>
    <i type="int" name="ICHARG">     2</i>
    <i type="int" name="INIWAV">     1</i>
   </separator>
   <separator name="electronic spin" >
    <i type="int" name="ISPIN">     1</i>
    <i type="logical" name="LNONCOLLINEAR"> F  </i>
    <v name="MAGMOM">      1.00000000      1.00000000      1.00000000      1.00000000</v>
    <i name="NUPDOWN">     -1.00000000</i>
    <i type="logical" name="LSORBIT"> F  </i>
    <v name="SAXIS">      0.00000000      0.00000000      1.00000000</v>
    <i type="logical" name="LSPIRAL"> F  </i>
    <v name="QSPIRAL">      0.00000000      0.00000000      0.00000000</v>
    <i type="logical" name="LZEROZ"> F  </i>
   </separator>
   <separator name="electronic exchange-correlation" >
    <i type="logical" name="LASPH"> T  </i>
    <i type="logical" name="LMETAGGA"> F  </i>
   </separator>
   <separator name="electronic convergence" >
    <i type="int" name="NELM">   100</i>
    <i type="int" name="NELMDL">     0</i>
    <i type="int" name="NELMIN">     4</i>
    <i name="ENINI">    520.00000000</i>
    <separator name="electronic convergence detail" >
     <i type="logical" name="LDIAG"> T  </i>
     <i type="logical" name="LSUBROT"> F  </i>
     <i name="WEIMIN">      0.00100000</i>
     <i name="EBREAK">      0.00000104</i>
     <i name="DEPER">      0.30000000</i>
     <i type="int" name="NRMM">     4</i>
     <i name="TIME">      0.40000000</i>
    </separator>
   </separator>
   <separator name="electronic mixer" >
    <i name="AMIX">      0.40000000</i>
    <i name="BMIX">      1.00000000</i>
    <i name="AMIN">      0.10000000</i>
    <i name="AMIX_MAG">      1.60000000</i>
    <i name="BMIX_MAG">      1.00000000</i>
    <separator name="electronic mixer details" >
     <i type="int" name="IMIX">     4</i>
     <i type="logical" name="MIXFIRST"> F  </i>
     <i type="int" name="MAXMIX">   -45</i>
     <i name="WC">    100.00000000</i>
     <i type="int" name="INIMIX">     1</i>
     <i type="int" name="MIXPRE">     1</i>
     <i type="int" name="MREMOVE">     5</i>
    </separator>
   </separator>
   <separator name="electronic dipolcorrection" >
    <i type="logical" name="LDIPOL"> F  </i>
    <i type="logical" name="LMONO"> F  </i>
    <i type="int" name="IDIPOL">     0</i>
    <i name="EPSILON">      1.00000000</i>
    <v name="DIPOL">   -100.00000000   -100.00000000   -100.00000000</v>
    <i name="EFIELD">      0.00000000</i>
   </separator>
  </separator>
  <separator name="grids" >
   <i type="int" name="NGX">    30</i>
   <i type="int" name="NGY">    30</i>
   <i type="int" name="NGZ">    30</i>
   <i type="int" name="NGXF">    60</i>
   <i type="int" name="NGYF">    60</i>
   <i type="int" name="NGZF">    60</i>
   <i type="logical" name="ADDGRID"> T  </i>
  </separator>
  <separator name="ionic" >
   <i type="int" name="NSW">   200</i>
   <i type="int" name="IBRION">     2</i>
   <i type="int" name="MDALGO">     0</i>
   <i type="int" name="ISIF">     3</i>
   <i name="PSTRESS">      0.00000000</i>
   <i name="EDIFFG">     -0.01000000</i>
   <i type="int" name="NFREE">     1</i>
   <i name="POTIM">      0.50000000</i>
   <i name="SMASS">     -3.00000000</i>
   <i name="SCALEE">      1.00000000</i>
  </separator>
  <separator name="ionic md" >
   <i name="TEBEG">      0.00010000</i>
   <i name="TEEND">      0.00010000</i>
   <i type="int" name="NBLOCK">     1</i>
   <i type="int" name="KBLOCK">   200</i>
   <i type="int" name="NPACO">   256</i>
   <i name="APACO">     16.00000000</i>
  </separator>
  <separator name="symmetry" >
   <i type="int" name="ISYM">     2</i>
   <i name="SYMPREC">      0.00001000</i>
  </separator>
  <separator name="dos" >
   <i type="int" name="LORBIT">     0</i>
   <v name="RWIGS">     -1.00000000</v>
   <i type="int" name="NEDOS">   301</i>
   <i name="EMIN">     10.00000000</i>
   <i name="EMAX">    -10.00000000</i>
   <i name="EFERMI">      0.00000000</i>
  </separator>
  <separator name="writing" >
   <i type="int" name="NWRITE">     2</i>
   <i type="logical" name="LWAVE"> F  </i>
   <i type="logical" name="LDOWNSAMPLE"> F  </i>
   <i type="logical" name="LCHARG"> F  </i>
   <i type="logical" name="LPARD"> F  </i>
   <i type="logical" name="LVTOT"> F  </i>
   <i type="logical" name="LVHAR"> F  </i>
   <i type="logical" name="LELF"> F  </i>
   <i type="logical" name="LOPTICS"> F  </i>
   <v name="STM">      0.00000000      0.00000000      0.00000000      0.00000000      0.00000000      0.00000000      0.00000000</v>
  </separator>
  <separator name="performance" >
   <i type="int" name="NPAR">     4</i>
   <i type="int" name="NSIM">     4</i>
   <i type="int" name="NBLK">    -1</i>
   <i type="logical" name="LPLANE"> T  </i>
   <i type="logical" name="LSCALAPACK"> T  </i>
   <i type="logical" name="LSCAAWARE"> F  </i>
   <i type="logical" name="LSCALU"> F  </i>
   <i type="logical" name="LASYNC"> F  </i>
   <i type="logical" name="LORBITALREAL"> F  </i>
  </separator>
  <separator name="miscellaneous" >
   <i type="int" name="IDIOT">     3</i>
   <i type="int" name="ISPECIAL">     0</i>
   <i type="logical" name="LMUSIC"> F  </i>
   <v name="POMASS">     26.98100000</v>
   <v name="DARWINR">      0.00000000</v>
   <v name="DARWINV">      1.00000000</v>
   <i type="logical" name="LCORR"> T  </i>
  </separator>
  <i type="logical" name="GGA_COMPAT"> T  </i>
  <i type="logical" name="LBERRY"> F  </i>
  <i type="int" name="ICORELEVEL">     0</i>
  <i type="logical" name="LDAU"> F  </i>
  <i type="int" name="I_CONSTRAINED_M">     0</i>
  <separator name="electronic exchange-correlation" >
   <i type="string" name="GGA">--</i>
   <i type="int" name="VOSKOWN">     0</i>
   <i type="logical" name="LHFCALC"> F  </i>
   <i type="string" name="PRECFOCK"></i>
   <i type="logical" name="LSYMGRAD"> F  </i>
   <i type="logical" name="LHFONE"> F  </i>
   <i type="logical" name="LRHFCALC"> F  </i>
   <i type="logical" name="LTHOMAS"> F  </i>
   <i type="logical" name="LMODELHF"> F  </i>
   <i name="ENCUT4O">     -1.00000000</i>
   <i type="int" name="EXXOEP">     0</i>
   <i type="int" name="FOURORBIT">     0</i>
   <i name="AEXX">      0.00000000</i>
   <i name="HFALPHA">      0.00000000</i>
   <i name="MCALPHA">      0.00000000</i>
   <i name="ALDAX">      1.00000000</i>
   <i name="AGGAX">      1.00000000</i>
   <i name="ALDAC">      1.00000000</i>
   <i name="AGGAC">      1.00000000</i>
   <i type="int" name="NKREDX">     1</i>
   <i type="int" name="NKREDY">     1</i>
   <i type="int" name="NKREDZ">     1</i>
   <i type="logical" name="SHIFTRED"> F  </i>
   <i type="logical" name="ODDONLY"> F  </i>
   <i type="logical" name="EVENONLY"> F  </i>
   <i type="int" name="LMAXFOCK">     0</i>
   <i type="int" name="NMAXFOCKAE">     0</i>
   <i type="logical" name="LFOCKAEDFT"> F  </i>
   <i name="HFSCREEN">      0.00000000</i>
   <i name="HFSCREENC">      0.00000000</i>
   <i type="int" name="NBANDSGWLOW">     0</i>
  </separator>
  <separator name="vdW DFT" >
   <i type="logical" name="LUSE_VDW"> F  </i>
   <i name="Zab_VDW">     -0.84910000</i>
   <i name="PARAM1">      0.12340000</i>
   <i name="PARAM2">      1.00000000</i>
   <i name="PARAM3">      0.00000000</i>
  </separator>
  <separator name="model GW" >
   <i type="int" name="MODEL_GW">     0</i>
   <i name="MODEL_EPS0">      9.91561932</i>
   <i name="MODEL_ALPHA">      1.00000000</i>
  </separator>
  <separator name="linear response parameters" >
   <i type="logical" name="LEPSILON"> F  </i>
   <i type="logical" name="LRPA"> F  </i>
   <i type="logical" name="LNABLA"> F  </i>
   <i type="logical" name="LVEL"> F  </i>
   <i type="int" name="KINTER">     0</i>
   <i name="CSHIFT">      0.10000000</i>
   <i name="OMEGAMAX">     -1.00000000</i>
   <i name="DEG_THRESHOLD">      0.00200000</i>
   <i name="RTIME">     -0.10000000</i>
   <i name="WPLASMAI">      0.00000000</i>
   <v name="DFIELD">      0.00000000      0.00000000      0.00000000</v>
   <v name="WPLASMA">      0.00000000      0.00000000      0.00000000      0.00000000      0.00000000      0.00000000      0.00000000      0.00000000      0.00000000</v>
  </separator>
  <separator name="orbital magnetization" >
   <i type="logical" name="NUCIND"> F  </i>
   <v name="MAGPOS">      0.00000000      0.00000000      0.00000000</v>
   <i type="logical" name="LNICSALL"> T  </i>
   <i type="logical" name="ORBITALMAG"> F  </i>
   <i type="logical" name="LMAGBLOCH"> F  </i>
   <i type="logical" name="LCHIMAG"> F  </i>
   <i type="logical" name="LGAUGE"> T  </i>
   <i type="int" name="MAGATOM">     0</i>
   <v name="MAGDIPOL">      0.00000000      0.00000000      0.00000000</v>
   <v name="AVECCONST">      0.00000000      0.00000000      0.00000000</v>
  </separator>
  <separator name="response functions" >
   <i type="logical" name="LADDER"> F  </i>
   <i type="logical" name="LRPAFORCE"> F  </i>
   <i type="logical" name="LFXC"> F  </i>
   <i type="logical" name="LHARTREE"> T  </i>
   <i type="int" name="IBSE">     0</i>
   <v type="int" name="KPOINT">    -1     0     0     0</v>
   <i type="logical" name="LTCTE"> F  </i>
   <i type="logical" name="LTETE"> F  </i>
   <i type="logical" name="LTRIPLET"> F  </i>
   <i type="logical" name="LFXCEPS"> F  </i>
   <i type="logical" name="LFXHEG"> F  </i>
   <i type="int" name="NATURALO">     2</i>
   <i type="logical" name="L2ORDER"> F  </i>
   <i type="logical" name="LMP2LT"> F  </i>
   <i type="logical" name="LUSEW"> F  </i>
   <i name="ENCUTGW">     -2.00000000</i>
   <i name="ENCUTGWSOFT">     -2.00000000</i>
   <i name="ENCUTLF">     -1.00000000</i>
   <i type="int" name="LMAXMP2">    -1</i>
   <i name="SCISSOR">      0.00000000</i>
   <i type="int" name="NOMEGA">     0</i>
   <i type="int" name="NOMEGAR">     0</i>
   <i type="int" name="NBANDSGW">    -1</i>
   <i type="int" name="NBANDSO">    -1</i>
   <i type="int" name="NBANDSV">    -1</i>
   <i type="int" name="NELM">   100</i>
   <i type="int" name="NELMHF">     1</i>
   <i type="int" name="DIM">     3</i>
   <i type="int" name="ANTIRES">     0</i>
   <i name="OMEGAMAX">    -30.00000000</i>
   <i name="OMEGAMIN">    -30.00000000</i>
   <i name="OMEGATL">   -200.00000000</i>
   <i type="int" name="OMEGAGRID">   140</i>
   <i name="CSHIFT">     -0.10000000</i>
   <i type="logical" name="SELFENERGY"> F  </i>
   <i type="logical" name="LSPECTRAL"> F  </i>
   <i type="logical" name="LSPECTRALGW"> F  </i>
   <i type="logical" name="LSINGLES"> F  </i>
   <i type="logical" name="LFERMIGW"> F  </i>
   <i type="logical" name="ODDONLYGW"> F  </i>
   <i type="logical" name="EVENONLYGW"> F  </i>
   <i type="int" name="NKREDLFX">     1</i>
   <i type="int" name="NKREDLFY">     1</i>
   <i type="int" name="NKREDLFZ">     1</i>
   <i type="int" name="MAXMEM">  2800</i>
   <i type="int" name="TELESCOPE">     0</i>
   <i type="int" name="TAUPAR">     1</i>
   <i type="int" name="OMEGAPAR">    -1</i>
   <i name="LAMBDA">      1.00000000</i>
  </separator>
  <separator name="External order field" >
   <i name="OFIELD_KAPPA">      0.00000000</i>
   <v name="OFIELD_K">      0.00000000      0.00000000      0.00000000</v>
   <i name="OFIELD_Q6_NEAR">      0.00000000</i>
   <i name="OFIELD_Q6_FAR">      0.00000000</i>
   <i name="OFIELD_A">      0.00000000</i>
  </separator>
 </parameters>
 <atominfo>
  <atoms>       4 </atoms>
  <types>       1 </types>
  <array name="atoms" >
   <dimension dim="1">ion</dimension>
   <field type="string">element</field>
   <field type="int">atomtype</field>
   <set>
    <rc><c>Al</c><c>   1</c></rc>
    <rc><c>Al</c><c>   1</c></rc>
    <rc><c>Al</c><c>   1</c></rc>
    <rc><c>Al</c><c>   1</c></rc>
   </set>
  </array>
  <array name="atomtypes" >
   <dimension dim="1">type</dimension>
   <field type="int">atomspertype</field>
   <field type="string">element</field>
   <field>mass</field>
   <field>valence</field>
   <field type="string">pseudopotential</field>
   <set>
    <rc><c>   4</c><c>Al</c><c>     26.98100000</c><c>      3.00000000</c><c>  PAW_PBE Al 04Jan2001                  </c></rc>
   </set>
  </array>
 </atominfo>
 <structure name="initialpos" >
  <crystal>
   <varray name="basis" >
    <v>       4.04336420       0.00000000       0.00000000 </v>
    <v>       0.00000000       4.04336420       0.00000000 </v>
    <v>       0.00000000       0.00000000       4.04336420 </v>
   </varray>
   <i name="volume">     66.10412879 </i>
   <varray name="rec_basis" >
    <v>       0.24731880       0.00000000       0.00000000 </v>
    <v>       0.00000000       0.24731880       0.00000000 </v>
    <v>       0.00000000       0.00000000       0.24731880 </v>
   </varray>
  </crystal>
  <varray name="positions" >
   <v>       0.00000000       0.00000000       0.00000000 </v>
   <v>       0.00000000       0.50000000       0.50000000 </v>
   <v>       0.50000000       0.00000000       0.50000000 </v>
   <v>       0.50000000       0.50000000       0.00000000 </v>
  </varray>
 </structure>
 <calculation>
  <scstep>
   <time name="dav">    0.16    0.17</time>
   <time name="total">    0.21    0.24</time>
   <energy>
    <i name="alphaZ">     -0.81297431 </i>
    <i name="ewald">   -293.90839846 </i>
    <i name="hartreedc">     -0.40796046 </i>
    <i name="XCdc">   -104.97032701 </i>
    <i name="pawpsdc">    264.80062850 </i>
    <i name="pawaedc">   -136.98248303 </i>
    <i name="eentropy">     -0.00030227 </i>
    <i name="bandstr">     64.41779161 </i>
    <i name="atom">    214.15382826 </i>
    <i name="e_fr_energy">      6.28980283 </i>
    <i name="e_wo_entrp">      6.29010510 </i>
    <i name="e_0_energy">      6.28990359 </i>
   </energy>
  </scstep>
  <scstep>
   <time name="dav">    0.17    0.17</time>
   <time name="total">    0.17    0.17</time>
   <energy>
    <i name="e_fr_energy">    -14.37678580 </i>
    <i name="e_wo_entrp">    -14.37679498 </i>
    <i name="e_0_energy">    -14.37678886 </i>
   </energy>
  </scstep>
  <scstep>
   <time name="dav">    0.18    0.18</time>
   <time name="total">    0.18    0.18</time>
   <energy>
    <i name="e_fr_energy">    -15.06124814 </i>
    <i name="e_wo_entrp">    -15.06108006 </i>
    <i name="e_0_energy">    -15.06119211 </i>
   </energy>
  </scstep>
  <scstep>
   <time name="dav">    0.16    0.16</time>
   <time name="total">    0.16    0.16</time>
   <energy>
    <i name="e_fr_energy">    -15.06625368 </i>
    <i name="e_wo_entrp">    -15.06612161 </i>
    <i name="e_0_energy">    -15.06620966 </i>
   </energy>
  </scstep>
  <scstep>
   <time name="dav">    0.17    0.17</time>
   <time name="total">    0.19    0.19</time>
   <energy>
    <i name="e_fr_energy">    -15.06630602 </i>
    <i name="e_wo_entrp">    -15.06617414 </i>
    <i name="e_0_energy">    -15.06626206 </i>
   </energy>
  </scstep>
  <scstep>
   <time name="dav">    0.16    0.16</time>
   <time name="total">    0.23    0.23</time>
   <energy>
    <i name="e_fr_energy">    -15.01499835 </i>
    <i name="e_wo_entrp">    -15.01487008 </i>
    <i name="e_0_energy">    -15.01495559 </i>
   </energy>
  </scstep>
  <scstep>
   <time name="dav">    0.15    0.15</time>
   <time name="total">    0.22    0.22</time>
   <energy>
    <i name="e_fr_energy">    -14.97752970 </i>
    <i name="e_wo_entrp">    -14.97740440 </i>
    <i name="e_0_energy">    -14.97748793 </i>
   </energy>
  </scstep>
  <scstep>
   <time name="dav">    0.17    0.17</time>
   <time name="total">    0.24    0.24</time>
   <energy>
    <i name="e_fr_energy">    -14.97742787 </i>
    <i name="e_wo_entrp">    -14.97730361 </i>
    <i name="e_0_energy">    -14.97738645 </i>
   </energy>
  </scstep>
  <scstep>
   <time name="dav">    0.11    0.11</time>
   <time name="total">    0.16    0.16</time>
   <energy>
    <i name="alphaZ">     -0.81297431 </i>
    <i name="ewald">   -293.90839846 </i>
    <i name="hartreedc">     -0.42080346 </i>
    <i name="XCdc">   -104.53352263 </i>
    <i name="pawpsdc">    561.30096658 </i>
    <i name="pawaedc">   -433.53322638 </i>
    <i name="eentropy">     -0.00012412 </i>
    <i name="bandstr">     42.77683360 </i>
    <i name="atom">    214.15382826 </i>
    <i name="e_fr_energy">    -14.97742093 </i>
    <i name="e_wo_entrp">    -14.97729681 </i>
    <i name="e_0_energy">    -14.97737956 </i>
   </energy>
  </scstep>
  <structure>
   <crystal>
    <varray name="basis" >
     <v>       4.04336420       0.00000000       0.00000000 </v>
     <v>       0.00000000       4.04336420       0.00000000 </v>
     <v>       0.00000000       0.00000000       4.04336420 </v>
    </varray>
    <i name="volume">     66.10412879 </i>
    <varray name="rec_basis" >
     <v>       0.24731880       0.00000000       0.00000000 </v>
     <v>       0.00000000       0.24731880       0.00000000 </v>
     <v>       0.00000000       0.00000000       0.24731880 </v>
    </varray>
   </crystal>
   <varray name="positions" >
    <v>       0.00000000       0.00000000       0.00000000 </v>
    <v>       0.00000000       0.50000000       0.50000000 </v>
    <v>       0.50000000       0.00000000       0.50000000 </v>
    <v>       0.50000000       0.50000000       0.00000000 </v>
   </varray>
  </structure>
  <varray name="forces" >
   <v>      -0.00000000       0.00000000      -0.00000000 </v>
   <v>      -0.00000000      -0.00000000      -0.00000000 </v>
   <v>       0.00000000       0.00000000       0.00000000 </v>
   <v>       0.00000000      -0.00000000       0.00000000 </v>
  </varray>
  <varray name="stress" >
   <v>      -0.34788327      -0.00000000       0.00000000 </v>
   <v>      -0.00000000      -0.34788327      -0.00000000 </v>
   <v>      -0.00000000      -0.00000000      -0.34788327 </v>
  </varray>
  <energy>
   <i name="e_fr_energy">    -14.97742093 </i>
   <i name="e_wo_entrp">    -14.97737956 </i>
   <i name="e_0_energy">     -0.00012412 </i>
  </energy>
  <time name="totalsc">    2.10    2.14</time>
  <eigenvalues>
   <array>
    <dimension dim="1">band</dimension>
    <dimension dim="2">kpoint</dimension>
    <dimension dim="3">spin</dimension>
    <field>eigene</field>
    <field>occ</field>
    <set>
     <set comment="spin 1">
      <set comment="kpoint 1">
       <r>   -3.1395    1.0000 </r>
       <r>    5.0642    1.0000 </r>
       <r>    5.0642    1.0000 </r>
       <r>    5.0642    1.0000 </r>
       <r>    6.3835    1.0000 </r>
       <r>    6.3835    1.0000 </r>
       <r>    6.3835    1.0000 </r>
       <r>   13.2416    0.0000 </r>
       <r>   13.2416    0.0000 </r>
       <r>   13.2417    0.0000 </r>
       <r>   13.5714    0.0000 </r>
       <r>   13.5714    0.0000 </r>
      </set>
      <set comment="kpoint 2">
       <r>   -3.0647    1.0000 </r>
       <r>    4.0868    1.0000 </r>
       <r>    5.1327    1.0000 </r>
       <r>    5.1327    1.0000 </r>
       <r>    6.4559    1.0000 </r>
       <r>    6.4559    1.0000 </r>
       <r>    7.4905    1.0000 </r>
       <r>   11.9453    0.0000 </r>
       <r>   11.9453    0.0000 </r>
       <r>   13.0635    0.0000 </r>
       <r>   13.0635    0.0000 </r>
       <r>   13.3155    0.0000 </r>
      </set>
      <set comment="kpoint 3">
       <r>   -2.8404    1.0000 </r>
       <r>    2.7798    1.0000 </r>
       <r>    5.3383    1.0000 </r>
       <r>    5.3383    1.0000 </r>
       <r>    6.6717    1.0000 </r>
       <r>    6.6717    1.0000 </r>
       <r>    9.1861   -0.0000 </r>
       <r>   10.6365    0.0000 </r>
       <r>   10.6365    0.0000 </r>
       <r>   12.0584    0.0000 </r>
       <r>   12.0584    0.0000 </r>
       <r>   13.5368    0.0000 </r>
      </set>
      <set comment="kpoint 4">
       <r>   -2.4675    1.0000 </r>
       <r>    1.5663    1.0000 </r>
       <r>    5.6810    1.0000 </r>
       <r>    5.6810    1.0000 </r>
       <r>    7.0261    1.0000 </r>
       <r>    7.0261    1.0000 </r>
       <r>    9.4642    0.0000 </r>
       <r>    9.4642    0.0000 </r>
       <r>   10.9987    0.0000 </r>
       <r>   10.9987    0.0000 </r>
       <r>   11.0462    0.0000 </r>
       <r>   13.9050    0.0000 </r>
      </set>
      <set comment="kpoint 5">
       <r>   -1.9470    1.0000 </r>
       <r>    0.4797    1.0000 </r>
       <r>    6.1612    1.0000 </r>
       <r>    6.1612    1.0000 </r>
       <r>    7.5046    1.0000 </r>
       <r>    7.5046    1.0000 </r>
       <r>    8.4305   -0.0000 </r>
       <r>    8.4305   -0.0000 </r>
       <r>   10.0216    0.0000 </r>
       <r>   10.0216    0.0000 </r>
       <r>   13.0357    0.0000 </r>
       <r>   14.4245    0.0000 </r>
      </set>
      <set comment="kpoint 6">
       <r>   -1.2807    1.0000 </r>
       <r>   -0.4708    1.0000 </r>
       <r>    6.7793    1.0000 </r>
       <r>    6.7793    1.0000 </r>
       <r>    7.5356    1.0000 </r>
       <r>    7.5356    1.0000 </r>
       <r>    8.0288   -0.0026 </r>
       <r>    8.0288   -0.0026 </r>
       <r>    9.2422   -0.0000 </r>
       <r>    9.2422   -0.0000 </r>
       <r>   15.1370    0.0000 </r>
       <r>   15.1503    0.0000 </r>
      </set>
      <set comment="kpoint 7">
       <r>   -2.9899    1.0000 </r>
       <r>    4.1573    1.0000 </r>
       <r>    4.1573    1.0000 </r>
       <r>    5.2012    1.0000 </r>
       <r>    6.5277    1.0000 </r>
       <r>    7.5605    1.0000 </r>
       <r>    7.5605    1.0000 </r>
       <r>   11.0003    0.0000 </r>
       <r>   12.0146    0.0000 </r>
       <r>   12.0146    0.0000 </r>
       <r>   13.1290    0.0000 </r>
       <r>   13.1290    0.0000 </r>
      </set>
      <set comment="kpoint 8">
       <r>   -2.7658    1.0000 </r>
       <r>    2.8514    1.0000 </r>
       <r>    4.3686    1.0000 </r>
       <r>    5.4068    1.0000 </r>
       <r>    6.7412    1.0000 </r>
       <r>    7.7690    1.0002 </r>
       <r>    9.2535   -0.0000 </r>
       <r>    9.7514    0.0000 </r>
       <r>   10.7056    0.0000 </r>
       <r>   12.1274    0.0000 </r>
       <r>   12.2224    0.0000 </r>
       <r>   13.0205    0.0000 </r>
      </set>
      <set comment="kpoint 9">
       <r>   -2.3930    1.0000 </r>
       <r>    1.6386    1.0000 </r>
       <r>    4.7201    1.0000 </r>
       <r>    5.7496    1.0000 </r>
       <r>    7.0847    1.0000 </r>
       <r>    8.1099   -0.0000 </r>
       <r>    8.6064   -0.0000 </r>
       <r>    9.5332    0.0000 </r>
       <r>   11.0738    0.0000 </r>
       <r>   11.1090    0.0000 </r>
       <r>   11.9833    0.0000 </r>
       <r>   12.5683    0.0000 </r>
      </set>
      <set comment="kpoint 10">
       <r>   -1.8728    1.0000 </r>
       <r>    0.5527    1.0000 </r>
       <r>    5.2107    1.0000 </r>
       <r>    6.2299    1.0000 </r>
       <r>    7.3402    1.0000 </r>
       <r>    7.8089    1.0060 </r>
       <r>    8.4994   -0.0000 </r>
       <r>    8.5550   -0.0000 </r>
       <r>   10.1204    0.0000 </r>
       <r>   11.0023    0.0000 </r>
       <r>   13.0516    0.0000 </r>
       <r>   13.0812    0.0000 </r>
      </set>
      <set comment="kpoint 11">
       <r>   -1.2069    1.0000 </r>
       <r>   -0.3974    1.0000 </r>
       <r>    5.8379    1.0000 </r>
       <r>    6.5930    1.0000 </r>
       <r>    6.8480    1.0000 </r>
       <r>    7.6044    1.0000 </r>
       <r>    8.2609   -0.0000 </r>
       <r>    8.8006   -0.0000 </r>
       <r>    9.6106    0.0000 </r>
       <r>   10.1505    0.0000 </r>
       <r>   13.6712    0.0000 </r>
       <r>   14.4257    0.0000 </r>
      </set>
      <set comment="kpoint 12">
       <r>   -2.5420    1.0000 </r>
       <r>    3.0659    1.0000 </r>
       <r>    3.0659    1.0000 </r>
       <r>    5.6124    1.0000 </r>
       <r>    6.9408    1.0000 </r>
       <r>    8.5260   -0.0000 </r>
       <r>    9.4525    0.0000 </r>
       <r>    9.4525    0.0000 </r>
       <r>   10.9127    0.0000 </r>
       <r>   10.9127    0.0000 </r>
       <r>   12.3360    0.0000 </r>
       <r>   12.3360    0.0000 </r>
      </set>
      <set comment="kpoint 13">
       <r>   -2.1699    1.0000 </r>
       <r>    1.8554    1.0000 </r>
       <r>    3.4229    1.0000 </r>
       <r>    5.9554    1.0000 </r>
       <r>    7.0713    1.0000 </r>
       <r>    7.5920    1.0000 </r>
       <r>    9.7401    0.0000 </r>
       <r>    9.7609    0.0000 </r>
       <r>   11.2579    0.0000 </r>
       <r>   11.2813    0.0000 </r>
       <r>   11.3131    0.0000 </r>
       <r>   12.6975    0.0000 </r>
      </set>
      <set comment="kpoint 14">
       <r>   -1.6505    1.0000 </r>
       <r>    0.7712    1.0000 </r>
       <r>    3.9209    1.0000 </r>
       <r>    6.2262    1.0000 </r>
       <r>    6.4358    1.0000 </r>
       <r>    7.8933    0.8093 </r>
       <r>    8.7060   -0.0000 </r>
       <r>    9.9125    0.0000 </r>
       <r>   10.6475    0.0000 </r>
       <r>   11.7407    0.0000 </r>
       <r>   12.6062    0.0000 </r>
       <r>   12.9239    0.0000 </r>
      </set>
      <set comment="kpoint 15">
       <r>   -0.9856    1.0000 </r>
       <r>   -0.1773    1.0000 </r>
       <r>    4.5582    1.0000 </r>
       <r>    5.3308    1.0000 </r>
       <r>    7.0542    1.0000 </r>
       <r>    7.8108    1.0068 </r>
       <r>    8.5080   -0.0000 </r>
       <r>    9.2452   -0.0000 </r>
       <r>   11.0397    0.0000 </r>
       <r>   11.7550    0.0000 </r>
       <r>   12.3607    0.0000 </r>
       <r>   13.1171    0.0000 </r>
      </set>
      <set comment="kpoint 16">
       <r>   -1.7987    1.0000 </r>
       <r>    2.2160    1.0000 </r>
       <r>    2.2160    1.0000 </r>
       <r>    6.0958    1.0000 </r>
       <r>    6.2985    1.0000 </r>
       <r>    7.7574    1.0000 </r>
       <r>   10.0849    0.0000 </r>
       <r>   10.0849    0.0000 </r>
       <r>   11.2983    0.0000 </r>
       <r>   11.2983    0.0000 </r>
       <r>   11.9673    0.0000 </r>
       <r>   11.9673    0.0000 </r>
      </set>
      <set comment="kpoint 17">
       <r>   -1.2807    1.0000 </r>
       <r>    1.1348    1.0000 </r>
       <r>    2.7193    1.0000 </r>
       <r>    5.0618    1.0000 </r>
       <r>    6.7793    1.0000 </r>
       <r>    8.2409   -0.0000 </r>
       <r>    9.0505   -0.0000 </r>
       <r>   10.4982    0.0000 </r>
       <r>   10.5675    0.0000 </r>
       <r>   11.9884    0.0000 </r>
       <r>   12.2494    0.0000 </r>
       <r>   12.8398    0.0000 </r>
      </set>
      <set comment="kpoint 18">
       <r>   -0.6175    1.0000 </r>
       <r>    0.1887    1.0000 </r>
       <r>    3.3636    1.0000 </r>
       <r>    4.1461    1.0000 </r>
       <r>    7.3980    1.0000 </r>
       <r>    8.1549   -0.0000 </r>
       <r>    8.8726   -0.0000 </r>
       <r>    9.6335    0.0000 </r>
       <r>   11.1878    0.0000 </r>
       <r>   11.9454    0.0000 </r>
       <r>   12.6239    0.0000 </r>
       <r>   12.8279    0.0000 </r>
      </set>
      <set comment="kpoint 19">
       <r>   -0.7645    1.0000 </r>
       <r>    1.6422    1.0000 </r>
       <r>    1.6422    1.0000 </r>
       <r>    4.0070    1.0000 </r>
       <r>    7.2604    1.0000 </r>
       <r>    8.7374   -0.0000 </r>
       <r>    9.5328    0.0000 </r>
       <r>    9.5328    0.0000 </r>
       <r>   11.0165    0.0000 </r>
       <r>   11.0165    0.0000 </r>
       <r>   11.8069    0.0000 </r>
       <r>   13.2568    0.0000 </r>
      </set>
      <set comment="kpoint 20">
       <r>   -0.1037    1.0000 </r>
       <r>    0.6996    1.0000 </r>
       <r>    2.2919    1.0000 </r>
       <r>    3.0814    1.0000 </r>
       <r>    7.8795    0.9505 </r>
       <r>    8.6369   -0.0000 </r>
       <r>    9.3716    0.0000 </r>
       <r>   10.1354    0.0000 </r>
       <r>   10.1531    0.0000 </r>
       <r>   10.9112    0.0000 </r>
       <r>   11.6445    0.0000 </r>
       <r>   12.3931    0.0000 </r>
      </set>
      <set comment="kpoint 21">
       <r>    0.5541    1.0000 </r>
       <r>    1.3537    1.0000 </r>
       <r>    1.3537    1.0000 </r>
       <r>    2.1487    1.0000 </r>
       <r>    8.4991   -0.0000 </r>
       <r>    9.2569   -0.0000 </r>
       <r>    9.2569   -0.0000 </r>
       <r>   10.0042    0.0000 </r>
       <r>   10.0150    0.0000 </r>
       <r>   10.7651    0.0000 </r>
       <r>   10.7651    0.0000 </r>
       <r>   11.5204    0.0000 </r>
      </set>
      <set comment="kpoint 22">
       <r>   -2.9151    1.0000 </r>
       <r>    4.2278    1.0000 </r>
       <r>    4.2278    1.0000 </r>
       <r>    4.2278    1.0000 </r>
       <r>    7.6297    1.0000 </r>
       <r>    7.6297    1.0000 </r>
       <r>    7.6297    1.0000 </r>
       <r>   11.0702    0.0000 </r>
       <r>   11.0702    0.0000 </r>
       <r>   11.0702    0.0000 </r>
       <r>   13.7630    0.0000 </r>
       <r>   13.7630    0.0000 </r>
      </set>
      <set comment="kpoint 23">
       <r>   -2.6912    1.0000 </r>
       <r>    2.9229    1.0000 </r>
       <r>    4.4389    1.0000 </r>
       <r>    4.4389    1.0000 </r>
       <r>    7.8339    1.0237 </r>
       <r>    7.8339    1.0237 </r>
       <r>    9.3182    0.0000 </r>
       <r>    9.8247    0.0000 </r>
       <r>    9.8247    0.0000 </r>
       <r>   11.2813    0.0000 </r>
       <r>   13.0873    0.0000 </r>
       <r>   13.0873    0.0000 </r>
      </set>
      <set comment="kpoint 24">
       <r>   -2.3186    1.0000 </r>
       <r>    1.7109    1.0000 </r>
       <r>    4.7901    1.0000 </r>
       <r>    4.7901    1.0000 </r>
       <r>    8.1283   -0.0000 </r>
       <r>    8.1283   -0.0000 </r>
       <r>    8.7188   -0.0000 </r>
       <r>    8.7188   -0.0000 </r>
       <r>   11.1413    0.0000 </r>
       <r>   11.6596    0.0000 </r>
       <r>   12.0533    0.0000 </r>
       <r>   12.0533    0.0000 </r>
      </set>
      <set comment="kpoint 25">
       <r>   -1.7987    1.0000 </r>
       <r>    0.6255    1.0000 </r>
       <r>    5.2796    1.0000 </r>
       <r>    5.2796    1.0000 </r>
       <r>    7.5719    1.0000 </r>
       <r>    7.5719    1.0000 </r>
       <r>    8.7180   -0.0000 </r>
       <r>    8.7180   -0.0000 </r>
       <r>   11.0791    0.0000 </r>
       <r>   11.0791    0.0000 </r>
       <r>   12.0754    0.0000 </r>
       <r>   13.1911    0.0000 </r>
      </set>
      <set comment="kpoint 26">
       <r>   -1.1331    1.0000 </r>
       <r>   -0.3240    1.0000 </r>
       <r>    5.8984    1.0000 </r>
       <r>    5.8984    1.0000 </r>
       <r>    6.6967    1.0000 </r>
       <r>    6.6967    1.0000 </r>
       <r>    9.2542   -0.0000 </r>
       <r>    9.2542   -0.0000 </r>
       <r>   10.2704    0.0000 </r>
       <r>   10.2704    0.0000 </r>
       <r>   12.7031    0.0000 </r>
       <r>   13.4563    0.0000 </r>
      </set>
      <set comment="kpoint 27">
       <r>   -2.4675    1.0000 </r>
       <r>    3.1374    1.0000 </r>
       <r>    3.1374    1.0000 </r>
       <r>    4.6495    1.0000 </r>
       <r>    7.9871   -0.0286 </r>
       <r>    8.6413   -0.0000 </r>
       <r>    9.4797    0.0000 </r>
       <r>    9.4797    0.0000 </r>
       <r>   10.0739    0.0000 </r>
       <r>   10.0739    0.0000 </r>
       <r>   13.2880    0.0000 </r>
       <r>   13.2880    0.0000 </r>
      </set>
      <set comment="kpoint 28">
       <r>   -2.0956    1.0000 </r>
       <r>    1.9276    1.0000 </r>
       <r>    3.4941    1.0000 </r>
       <r>    4.9991    1.0000 </r>
       <r>    7.3455    1.0000 </r>
       <r>    8.4725   -0.0000 </r>
       <r>    8.8189   -0.0000 </r>
       <r>    9.9105    0.0000 </r>
       <r>   10.3306    0.0000 </r>
       <r>   11.4177    0.0000 </r>
       <r>   12.2659    0.0000 </r>
       <r>   13.6190    0.0000 </r>
      </set>
      <set comment="kpoint 29">
       <r>   -1.5765    1.0000 </r>
       <r>    0.8440    1.0000 </r>
       <r>    3.9917    1.0000 </r>
       <r>    5.4791    1.0000 </r>
       <r>    6.3373    1.0000 </r>
       <r>    7.8005    1.0032 </r>
       <r>    8.9360   -0.0000 </r>
       <r>   10.3185    0.0000 </r>
       <r>   10.8305    0.0000 </r>
       <r>   11.3386    0.0000 </r>
       <r>   12.6757    0.0000 </r>
       <r>   13.0980    0.0000 </r>
      </set>
      <set comment="kpoint 30">
       <r>   -0.9119    1.0000 </r>
       <r>   -0.1041    1.0000 </r>
       <r>    4.6276    1.0000 </r>
       <r>    5.3893    1.0000 </r>
       <r>    6.1495    1.0000 </r>
       <r>    6.9026    1.0000 </r>
       <r>    9.5455    0.0000 </r>
       <r>   10.2318    0.0000 </r>
       <r>   11.1576    0.0000 </r>
       <r>   11.4542    0.0000 </r>
       <r>   11.8304    0.0000 </r>
       <r>   12.2104    0.0000 </r>
      </set>
      <set comment="kpoint 31">
       <r>   -1.7246    1.0000 </r>
       <r>    2.2880    1.0000 </r>
       <r>    2.2880    1.0000 </r>
       <r>    5.3392    1.0000 </r>
       <r>    6.2079    1.0000 </r>
       <r>    8.8036   -0.0000 </r>
       <r>    9.1848   -0.0000 </r>
       <r>    9.1848   -0.0000 </r>
       <r>   11.6958    0.0000 </r>
       <r>   11.6958    0.0000 </r>
       <r>   12.6483    0.0000 </r>
       <r>   12.6483    0.0000 </r>
      </set>
      <set comment="kpoint 32">
       <r>   -1.2069    1.0000 </r>
       <r>    1.2074    1.0000 </r>
       <r>    2.7910    1.0000 </r>
       <r>    5.1204    1.0000 </r>
       <r>    5.8711    1.0000 </r>
       <r>    8.1528   -0.0000 </r>
       <r>    9.2891    0.0000 </r>
       <r>    9.6745    0.0000 </r>
       <r>   11.4756    0.0000 </r>
       <r>   11.9500    0.0000 </r>
       <r>   12.3589    0.0000 </r>
       <r>   12.9640    0.0000 </r>
      </set>
      <set comment="kpoint 33">
       <r>   -0.5440    1.0000 </r>
       <r>    0.2618    1.0000 </r>
       <r>    3.4348    1.0000 </r>
       <r>    4.2159    1.0000 </r>
       <r>    6.4867    1.0000 </r>
       <r>    7.2514    1.0000 </r>
       <r>    9.9110    0.0000 </r>
       <r>   10.2987    0.0000 </r>
       <r>   10.6568    0.0000 </r>
       <r>   11.0578    0.0000 </r>
       <r>   12.9013    0.0000 </r>
       <r>   13.6085    0.0000 </r>
      </set>
      <set comment="kpoint 34">
       <r>   -0.6910    1.0000 </r>
       <r>    1.7146    1.0000 </r>
       <r>    1.7146    1.0000 </r>
       <r>    4.0769    1.0000 </r>
       <r>    6.3473    1.0000 </r>
       <r>    8.6412   -0.0000 </r>
       <r>    8.6412   -0.0000 </r>
       <r>    9.7793    0.0000 </r>
       <r>   10.9239    0.0000 </r>
       <r>   12.0244    0.0000 </r>
       <r>   12.0244    0.0000 </r>
       <r>   14.2468    0.0000 </r>
      </set>
      <set comment="kpoint 35">
       <r>   -0.0305    1.0000 </r>
       <r>    0.7724    1.0000 </r>
       <r>    2.3639    1.0000 </r>
       <r>    3.1528    1.0000 </r>
       <r>    6.9740    1.0000 </r>
       <r>    7.7397    1.0000 </r>
       <r>    9.2666   -0.0000 </r>
       <r>   10.0282    0.0000 </r>
       <r>   10.4036    0.0000 </r>
       <r>   11.1561    0.0000 </r>
       <r>   12.6491    0.0000 </r>
       <r>   13.3921    0.0000 </r>
      </set>
      <set comment="kpoint 36">
       <r>    0.6270    1.0000 </r>
       <r>    1.4262    1.0000 </r>
       <r>    1.4262    1.0000 </r>
       <r>    2.2208    1.0000 </r>
       <r>    7.6013    1.0000 </r>
       <r>    8.3663   -0.0000 </r>
       <r>    8.3663   -0.0000 </r>
       <r>    9.1298   -0.0000 </r>
       <r>   11.0273    0.0000 </r>
       <r>   11.7787    0.0000 </r>
       <r>   11.7787    0.0000 </r>
       <r>   12.5264    0.0000 </r>
      </set>
      <set comment="kpoint 37">
       <r>   -2.2442    1.0000 </r>
       <r>    3.3515    1.0000 </r>
       <r>    3.3515    1.0000 </r>
       <r>    3.3515    1.0000 </r>
       <r>    8.7240   -0.0000 </r>
       <r>    8.7240   -0.0000 </r>
       <r>    8.7240   -0.0000 </r>
       <r>    9.7981    0.0000 </r>
       <r>    9.7981    0.0000 </r>
       <r>    9.7981    0.0000 </r>
       <r>   14.0219    0.0000 </r>
       <r>   14.3385    0.0000 </r>
      </set>
      <set comment="kpoint 38">
       <r>   -1.8729    1.0000 </r>
       <r>    2.1440    1.0000 </r>
       <r>    3.7073    1.0000 </r>
       <r>    3.7073    1.0000 </r>
       <r>    7.5816    1.0000 </r>
       <r>    7.5816    1.0000 </r>
       <r>    9.0961   -0.0000 </r>
       <r>   10.1227    0.0000 </r>
       <r>   10.1227    0.0000 </r>
       <r>   11.6236    0.0000 </r>
       <r>   12.8843    0.0000 </r>
       <r>   13.7947    0.0000 </r>
      </set>
      <set comment="kpoint 39">
       <r>   -1.3546    1.0000 </r>
       <r>    1.0621    1.0000 </r>
       <r>    4.2030    1.0000 </r>
       <r>    4.2030    1.0000 </r>
       <r>    6.5452    1.0000 </r>
       <r>    6.5452    1.0000 </r>
       <r>    9.5878    0.0000 </r>
       <r>   10.5918    0.0000 </r>
       <r>   10.5918    0.0000 </r>
       <r>   11.8647    0.0000 </r>
       <r>   12.8864    0.0000 </r>
       <r>   12.8864    0.0000 </r>
      </set>
      <set comment="kpoint 40">
       <r>   -0.6910    1.0000 </r>
       <r>    0.1156    1.0000 </r>
       <r>    4.8270    1.0000 </r>
       <r>    4.8270    1.0000 </r>
       <r>    5.6483    1.0000 </r>
       <r>    5.6483    1.0000 </r>
       <r>   10.2132    0.0000 </r>
       <r>   10.9729    0.0000 </r>
       <r>   11.1520    0.0000 </r>
       <r>   11.1520    0.0000 </r>
       <r>   12.0852    0.0000 </r>
       <r>   12.0852    0.0000 </r>
      </set>
      <set comment="kpoint 41">
       <r>   -1.5025    1.0000 </r>
       <r>    2.5038    1.0000 </r>
       <r>    2.5038    1.0000 </r>
       <r>    4.0611    1.0000 </r>
       <r>    6.4162    1.0000 </r>
       <r>    7.9367    0.1476 </r>
       <r>    7.9367    0.1476 </r>
       <r>   10.4695    0.0000 </r>
       <r>   11.7402    0.0000 </r>
       <r>   11.9569    0.0000 </r>
       <r>   11.9569    0.0000 </r>
       <r>   14.1298    0.0000 </r>
      </set>
      <set comment="kpoint 42">
       <r>   -0.9855    1.0000 </r>
       <r>    1.4250    1.0000 </r>
       <r>    3.0059    1.0000 </r>
       <r>    4.5452    1.0000 </r>
       <r>    5.3796    1.0000 </r>
       <r>    6.8963    1.0000 </r>
       <r>    8.4274   -0.0000 </r>
       <r>   10.7149    0.0000 </r>
       <r>   10.9501    0.0000 </r>
       <r>   12.3849    0.0000 </r>
       <r>   13.2642    0.0000 </r>
       <r>   13.8973    0.0000 </r>
      </set>
      <set comment="kpoint 43">
       <r>   -0.3237    1.0000 </r>
       <r>    0.4809    1.0000 </r>
       <r>    3.6475    1.0000 </r>
       <r>    4.4168    1.0000 </r>
       <r>    5.2262    1.0000 </r>
       <r>    5.9878    1.0000 </r>
       <r>    9.0550   -0.0000 </r>
       <r>    9.8183    0.0000 </r>
       <r>   11.5572    0.0000 </r>
       <r>   12.2529    0.0000 </r>
       <r>   13.1454    0.0000 </r>
       <r>   13.8158    0.0000 </r>
      </set>
      <set comment="kpoint 44">
       <r>   -0.4704    1.0000 </r>
       <r>    1.9314    1.0000 </r>
       <r>    1.9314    1.0000 </r>
       <r>    4.2785    1.0000 </r>
       <r>    5.0847    1.0000 </r>
       <r>    7.3874    1.0000 </r>
       <r>    7.3874    1.0000 </r>
       <r>    9.6845    0.0000 </r>
       <r>   11.4351    0.0000 </r>
       <r>   13.6024    0.0000 </r>
       <r>   13.6024    0.0000 </r>
       <r>   14.4704    0.0000 </r>
      </set>
      <set comment="kpoint 45">
       <r>    0.1891    1.0000 </r>
       <r>    0.9907    1.0000 </r>
       <r>    2.5795    1.0000 </r>
       <r>    3.3662    1.0000 </r>
       <r>    5.7070    1.0000 </r>
       <r>    6.4787    1.0000 </r>
       <r>    8.0172   -0.0061 </r>
       <r>    8.7838   -0.0000 </r>
       <r>   12.0486    0.0000 </r>
       <r>   12.7826    0.0000 </r>
       <r>   14.2426    0.0000 </r>
       <r>   14.9771    0.0000 </r>
      </set>
      <set comment="kpoint 46">
       <r>    0.8456    1.0000 </r>
       <r>    1.6435    1.0000 </r>
       <r>    1.6435    1.0000 </r>
       <r>    2.4368    1.0000 </r>
       <r>    6.3389    1.0000 </r>
       <r>    7.1102    1.0000 </r>
       <r>    7.1102    1.0000 </r>
       <r>    7.8795    0.9507 </r>
       <r>   12.6631    0.0000 </r>
       <r>   13.3994    0.0000 </r>
       <r>   13.3994    0.0000 </r>
       <r>   14.1331    0.0000 </r>
      </set>
      <set comment="kpoint 47">
       <r>   -1.1330    1.0000 </r>
       <r>    2.8626    1.0000 </r>
       <r>    2.8626    1.0000 </r>
       <r>    2.8626    1.0000 </r>
       <r>    6.7679    1.0000 </r>
       <r>    6.7679    1.0000 </r>
       <r>    6.7679    1.0000 </r>
       <r>   10.5904    0.0000 </r>
       <r>   12.3061    0.0000 </r>
       <r>   12.3061    0.0000 </r>
       <r>   12.3061    0.0000 </r>
       <r>   15.3001    0.0000 </r>
      </set>
      <set comment="kpoint 48">
       <r>   -0.6174    1.0000 </r>
       <r>    1.7869    1.0000 </r>
       <r>    3.3623    1.0000 </r>
       <r>    3.3623    1.0000 </r>
       <r>    5.7206    1.0000 </r>
       <r>    5.7206    1.0000 </r>
       <r>    7.2598    1.0000 </r>
       <r>    9.5595    0.0000 </r>
       <r>   12.7760    0.0000 </r>
       <r>   12.7760    0.0000 </r>
       <r>   14.2657    0.0000 </r>
       <r>   14.9181    0.0000 </r>
      </set>
      <set comment="kpoint 49">
       <r>    0.0428    1.0000 </r>
       <r>    0.8453    1.0000 </r>
       <r>    3.9930    1.0000 </r>
       <r>    3.9930    1.0000 </r>
       <r>    4.8146    1.0000 </r>
       <r>    4.8146    1.0000 </r>
       <r>    7.8904    0.8448 </r>
       <r>    8.6579   -0.0000 </r>
       <r>   13.3398    0.0000 </r>
       <r>   13.3398    0.0000 </r>
       <r>   14.1827    0.0000 </r>
       <r>   14.1827    0.0000 </r>
      </set>
      <set comment="kpoint 50">
       <r>   -0.1036    1.0000 </r>
       <r>    2.2919    1.0000 </r>
       <r>    2.2919    1.0000 </r>
       <r>    3.8515    1.0000 </r>
       <r>    4.6753    1.0000 </r>
       <r>    6.2129    1.0000 </r>
       <r>    6.2129    1.0000 </r>
       <r>    8.5234   -0.0000 </r>
       <r>   13.2565    0.0000 </r>
       <r>   14.7028    0.0000 </r>
       <r>   14.7028    0.0000 </r>
       <r>   15.3967    0.0000 </r>
      </set>
      <set comment="kpoint 51">
       <r>    0.5543    1.0000 </r>
       <r>    1.3539    1.0000 </r>
       <r>    2.9376    1.0000 </r>
       <r>    3.7136    1.0000 </r>
       <r>    4.5299    1.0000 </r>
       <r>    5.2986    1.0000 </r>
       <r>    6.8461    1.0000 </r>
       <r>    7.6173    1.0000 </r>
       <r>   13.8537    0.0000 </r>
       <r>   14.5416    0.0000 </r>
       <r>   15.3639    0.0000 </r>
       <r>   15.9305    0.0000 </r>
      </set>
      <set comment="kpoint 52">
       <r>    1.2091    1.0000 </r>
       <r>    2.0049    1.0000 </r>
       <r>    2.0049    1.0000 </r>
       <r>    2.7953    1.0000 </r>
       <r>    5.1573    1.0000 </r>
       <r>    5.9332    1.0000 </r>
       <r>    5.9332    1.0000 </r>
       <r>    6.7073    1.0000 </r>
       <r>   14.4567    0.0000 </r>
       <r>   15.1647    0.0000 </r>
       <r>   15.1647    0.0000 </r>
       <r>   15.8735    0.0000 </r>
      </set>
      <set comment="kpoint 53">
       <r>    0.4084    1.0000 </r>
       <r>    2.7944    1.0000 </r>
       <r>    2.7944    1.0000 </r>
       <r>    2.7944    1.0000 </r>
       <r>    5.1604    1.0000 </r>
       <r>    5.1604    1.0000 </r>
       <r>    5.1604    1.0000 </r>
       <r>    7.4818    1.0000 </r>
       <r>   15.1910    0.0000 </r>
       <r>   15.1910    0.0000 </r>
       <r>   15.1910    0.0000 </r>
       <r>   16.6502    0.0000 </r>
      </set>
      <set comment="kpoint 54">
       <r>    1.0640    1.0000 </r>
       <r>    1.8606    1.0000 </r>
       <r>    3.4302    1.0000 </r>
       <r>    3.4302    1.0000 </r>
       <r>    4.2481    1.0000 </r>
       <r>    4.2481    1.0000 </r>
       <r>    5.7958    1.0000 </r>
       <r>    6.5709    1.0000 </r>
       <r>   15.7488    0.0000 </r>
       <r>   15.7488    0.0000 </r>
       <r>   16.4324    0.0000 </r>
       <r>   16.4324    0.0000 </r>
      </set>
      <set comment="kpoint 55">
       <r>    1.7164    1.0000 </r>
       <r>    2.5087    1.0000 </r>
       <r>    2.5087    1.0000 </r>
       <r>    3.2891    1.0000 </r>
       <r>    4.1051    1.0000 </r>
       <r>    4.8782    1.0000 </r>
       <r>    4.8782    1.0000 </r>
       <r>    5.6559    1.0000 </r>
       <r>   16.3389    0.0000 </r>
       <r>   16.9685    0.0000 </r>
       <r>   16.9685    0.0000 </r>
       <r>   17.6294    0.0000 </r>
      </set>
      <set comment="kpoint 56">
       <r>    2.3653    1.0000 </r>
       <r>    3.1471    1.0000 </r>
       <r>    3.1471    1.0000 </r>
       <r>    3.1471    1.0000 </r>
       <r>    3.9627    1.0000 </r>
       <r>    3.9627    1.0000 </r>
       <r>    3.9627    1.0000 </r>
       <r>    4.7372    1.0000 </r>
       <r>   18.2181    0.0000 </r>
       <r>   18.2249    0.0000 </r>
       <r>   18.2310    0.0000 </r>
       <r>   18.3906    0.0000 </r>
      </set>
     </set>
    </set>
   </array>
  </eigenvalues>
  <separator name="orbital magnetization" >
   <v name="MAGDIPOLOUT">      0.00000000      0.00000000      0.00000000</v>
  </separator>
  <dos>
   <i name="efermi">      7.91323240 </i>
   <total>
    <array>
     <dimension dim="1">gridpoints</dimension>
     <dimension dim="2">spin</dimension>
     <field>energy</field>
     <field>total</field>
     <field>integrated</field>
     <set>
      <set comment="spin 1">
       <r>    -4.2160     0.0000     0.0000 </r>
       <r>    -4.1371     0.0000     0.0000 </r>
       <r>    -4.0581     0.0000     0.0000 </r>
       <r>    -3.9792     0.0000     0.0000 </r>
       <r>    -3.9002     0.0000     0.0000 </r>
       <r>    -3.8213     0.0000     0.0000 </r>
       <r>    -3.7423     0.0000     0.0000 </r>
       <r>    -3.6634     0.0000     0.0000 </r>
       <r>    -3.5845    -0.0000    -0.0000 </r>
       <r>    -3.5055    -0.0000    -0.0000 </r>
       <r>    -3.4266    -0.0000    -0.0000 </r>
       <r>    -3.3476    -0.0000    -0.0000 </r>
       <r>    -3.2687    -0.0000    -0.0000 </r>
       <r>    -3.1897    -0.0006    -0.0000 </r>
       <r>    -3.1108     0.0158     0.0012 </r>
       <r>    -3.0318     0.1115     0.0100 </r>
       <r>    -2.9529     0.2322     0.0283 </r>
       <r>    -2.8740     0.1587     0.0409 </r>
       <r>    -2.7950     0.1492     0.0526 </r>
       <r>    -2.7161     0.4893     0.0913 </r>
       <r>    -2.6371     0.3981     0.1227 </r>
       <r>    -2.5582     0.0351     0.1255 </r>
       <r>    -2.4792     0.3565     0.1536 </r>
       <r>    -2.4003     0.5778     0.1992 </r>
       <r>    -2.3214     0.4918     0.2380 </r>
       <r>    -2.2424     0.3188     0.2632 </r>
       <r>    -2.1635     0.3236     0.2888 </r>
       <r>    -2.0845     0.8376     0.3549 </r>
       <r>    -2.0056     0.2909     0.3778 </r>
       <r>    -1.9266     0.0552     0.3822 </r>
       <r>    -1.8477     0.8315     0.4478 </r>
       <r>    -1.7688     0.7633     0.5081 </r>
       <r>    -1.6898     0.4985     0.5475 </r>
       <r>    -1.6109     0.5040     0.5872 </r>
       <r>    -1.5319     0.9279     0.6605 </r>
       <r>    -1.4530     0.4162     0.6934 </r>
       <r>    -1.3740     0.0753     0.6993 </r>
       <r>    -1.2951     0.5204     0.7404 </r>
       <r>    -1.2161     0.9056     0.8119 </r>
       <r>    -1.1372     1.1948     0.9062 </r>
       <r>    -1.0583     0.2795     0.9283 </r>
       <r>    -0.9793     0.8215     0.9931 </r>
       <r>    -0.9004     1.2273     1.0900 </r>
       <r>    -0.8214     0.2634     1.1108 </r>
       <r>    -0.7425     0.1599     1.1234 </r>
       <r>    -0.6635     0.8687     1.1920 </r>
       <r>    -0.5846     0.9806     1.2694 </r>
       <r>    -0.5057     0.9616     1.3453 </r>
       <r>    -0.4267     0.6013     1.3928 </r>
       <r>    -0.3478     0.6259     1.4422 </r>
       <r>    -0.2688     1.2040     1.5373 </r>
       <r>    -0.1899     0.0641     1.5423 </r>
       <r>    -0.1109     1.0457     1.6249 </r>
       <r>    -0.0320     1.6114     1.7521 </r>
       <r>     0.0470     0.7062     1.8078 </r>
       <r>     0.1259     0.4552     1.8438 </r>
       <r>     0.2048     1.1994     1.9385 </r>
       <r>     0.2838     1.1389     2.0284 </r>
       <r>     0.3627     0.1382     2.0393 </r>
       <r>     0.4417     0.1514     2.0512 </r>
       <r>     0.5206     1.0964     2.1378 </r>
       <r>     0.5996     1.6512     2.2681 </r>
       <r>     0.6785     0.8836     2.3379 </r>
       <r>     0.7574     0.7130     2.3942 </r>
       <r>     0.8364     1.7298     2.5307 </r>
       <r>     0.9153     1.1516     2.6216 </r>
       <r>     0.9943     0.4491     2.6571 </r>
       <r>     1.0732     1.0447     2.7396 </r>
       <r>     1.1522     0.6236     2.7888 </r>
       <r>     1.2311     1.3005     2.8915 </r>
       <r>     1.3100     0.1996     2.9072 </r>
       <r>     1.3890     1.3758     3.0158 </r>
       <r>     1.4679     1.8314     3.1604 </r>
       <r>     1.5469     0.0007     3.1605 </r>
       <r>     1.6258     0.5268     3.2021 </r>
       <r>     1.7048     2.0942     3.3674 </r>
       <r>     1.7837     1.3786     3.4762 </r>
       <r>     1.8627     0.6989     3.5314 </r>
       <r>     1.9416     1.6960     3.6653 </r>
       <r>     2.0205     1.2763     3.7660 </r>
       <r>     2.0995     0.2024     3.7820 </r>
       <r>     2.1784     0.6497     3.8333 </r>
       <r>     2.2574     1.0595     3.9169 </r>
       <r>     2.3363     2.3134     4.0996 </r>
       <r>     2.4153     1.0124     4.1795 </r>
       <r>     2.4942     0.9258     4.2526 </r>
       <r>     2.5731     1.6938     4.3863 </r>
       <r>     2.6521     0.5050     4.4262 </r>
       <r>     2.7310     0.2367     4.4448 </r>
       <r>     2.8100     1.7128     4.5801 </r>
       <r>     2.8889     1.3061     4.6832 </r>
       <r>     2.9679     1.3669     4.7911 </r>
       <r>     3.0468     1.0519     4.8741 </r>
       <r>     3.1258     1.3055     4.9772 </r>
       <r>     3.2047     1.8668     5.1245 </r>
       <r>     3.2836     0.0559     5.1290 </r>
       <r>     3.3626     1.6690     5.2607 </r>
       <r>     3.4415     2.9956     5.4972 </r>
       <r>     3.5205     1.5383     5.6186 </r>
       <r>     3.5994     0.0515     5.6227 </r>
       <r>     3.6784     0.9845     5.7004 </r>
       <r>     3.7573     1.8044     5.8429 </r>
       <r>     3.8362     0.0820     5.8493 </r>
       <r>     3.9152     0.4891     5.8880 </r>
       <r>     3.9941     1.7613     6.0270 </r>
       <r>     4.0731     1.6708     6.1589 </r>
       <r>     4.1520     1.2939     6.2610 </r>
       <r>     4.2310     2.4765     6.4566 </r>
       <r>     4.3099     1.6830     6.5894 </r>
       <r>     4.3888     0.4358     6.6238 </r>
       <r>     4.4678     1.7274     6.7602 </r>
       <r>     4.5467     1.4210     6.8724 </r>
       <r>     4.6257     1.5007     6.9908 </r>
       <r>     4.7046     1.4068     7.1019 </r>
       <r>     4.7836     0.9350     7.1757 </r>
       <r>     4.8625     2.5531     7.3772 </r>
       <r>     4.9415     0.6777     7.4308 </r>
       <r>     5.0204     0.7287     7.4883 </r>
       <r>     5.0993     1.1638     7.5801 </r>
       <r>     5.1783     1.9406     7.7333 </r>
       <r>     5.2572     1.7816     7.8740 </r>
       <r>     5.3362     2.2963     8.0553 </r>
       <r>     5.4151     2.5664     8.2579 </r>
       <r>     5.4941     1.0042     8.3371 </r>
       <r>     5.5730     0.1990     8.3529 </r>
       <r>     5.6519     0.9143     8.4250 </r>
       <r>     5.7309     2.4453     8.6181 </r>
       <r>     5.8098     1.1395     8.7080 </r>
       <r>     5.8888     1.5576     8.8310 </r>
       <r>     5.9677     2.2235     9.0065 </r>
       <r>     6.0467     0.9076     9.0782 </r>
       <r>     6.1256     0.2886     9.1010 </r>
       <r>     6.2046     1.7476     9.2389 </r>
       <r>     6.2835     1.6595     9.3699 </r>
       <r>     6.3624     1.6689     9.5017 </r>
       <r>     6.4414     1.1211     9.5902 </r>
       <r>     6.5203     2.3746     9.7776 </r>
       <r>     6.5993     1.7023     9.9120 </r>
       <r>     6.6782     0.5550     9.9558 </r>
       <r>     6.7572     1.8757    10.1039 </r>
       <r>     6.8361     1.3913    10.2137 </r>
       <r>     6.9150     2.3553    10.3997 </r>
       <r>     6.9940     1.3927    10.5096 </r>
       <r>     7.0729     1.1762    10.6025 </r>
       <r>     7.1519     1.5225    10.7227 </r>
       <r>     7.2308     0.2051    10.7389 </r>
       <r>     7.3098     1.4614    10.8542 </r>
       <r>     7.3887     1.9313    11.0067 </r>
       <r>     7.4676     0.8041    11.0702 </r>
       <r>     7.5466     0.7830    11.1320 </r>
       <r>     7.6255     4.1795    11.4619 </r>
       <r>     7.7045     0.7410    11.5204 </r>
       <r>     7.7834     1.6976    11.6544 </r>
       <r>     7.8624     2.8478    11.8793 </r>
       <r>     7.9413     2.1393    12.0481 </r>
       <r>     8.0203     1.3864    12.1576 </r>
       <r>     8.0992     0.7858    12.2196 </r>
       <r>     8.1781     2.3566    12.4057 </r>
       <r>     8.2571     0.7231    12.4627 </r>
       <r>     8.3360     0.4360    12.4972 </r>
       <r>     8.4150     1.1353    12.5868 </r>
       <r>     8.4939     2.0831    12.7512 </r>
       <r>     8.5729     1.8729    12.8991 </r>
       <r>     8.6518     1.9051    13.0495 </r>
       <r>     8.7307     2.9411    13.2817 </r>
       <r>     8.8097     2.6718    13.4926 </r>
       <r>     8.8886     1.4004    13.6031 </r>
       <r>     8.9676     0.9114    13.6751 </r>
       <r>     9.0465     0.5890    13.7216 </r>
       <r>     9.1255     1.4768    13.8382 </r>
       <r>     9.2044     1.0492    13.9210 </r>
       <r>     9.2834     3.6988    14.2130 </r>
       <r>     9.3623     1.5729    14.3372 </r>
       <r>     9.4412     0.4516    14.3728 </r>
       <r>     9.5202     1.7865    14.5138 </r>
       <r>     9.5991     2.4025    14.7035 </r>
       <r>     9.6781     1.5475    14.8257 </r>
       <r>     9.7570     1.5622    14.9490 </r>
       <r>     9.8360     2.7233    15.1640 </r>
       <r>     9.9149     1.8238    15.3080 </r>
       <r>     9.9938     1.1786    15.4010 </r>
       <r>    10.0728     1.9399    15.5542 </r>
       <r>    10.1517     2.8933    15.7826 </r>
       <r>    10.2307     1.4644    15.8982 </r>
       <r>    10.3096     2.6087    16.1041 </r>
       <r>    10.3886     1.9310    16.2565 </r>
       <r>    10.4675     0.8886    16.3267 </r>
       <r>    10.5464     0.7186    16.3834 </r>
       <r>    10.6254     1.5923    16.5091 </r>
       <r>    10.7043     1.9936    16.6665 </r>
       <r>    10.7833     1.2112    16.7621 </r>
       <r>    10.8622     0.8758    16.8313 </r>
       <r>    10.9412     1.5918    16.9569 </r>
       <r>    11.0201     2.5216    17.1560 </r>
       <r>    11.0991     3.7077    17.4487 </r>
       <r>    11.1780     3.5476    17.7287 </r>
       <r>    11.2569     1.0822    17.8142 </r>
       <r>    11.3359     2.2844    17.9945 </r>
       <r>    11.4148     1.0686    18.0789 </r>
       <r>    11.4938     2.5201    18.2778 </r>
       <r>    11.5727     1.0683    18.3622 </r>
       <r>    11.6517     1.0952    18.4486 </r>
       <r>    11.7306     1.7599    18.5876 </r>
       <r>    11.8095     2.2128    18.7622 </r>
       <r>    11.8885     1.2149    18.8581 </r>
       <r>    11.9674     2.3719    19.0454 </r>
       <r>    12.0464     3.7919    19.3447 </r>
       <r>    12.1253     2.9074    19.5743 </r>
       <r>    12.2043     0.6098    19.6224 </r>
       <r>    12.2832     2.9989    19.8591 </r>
       <r>    12.3622     2.0538    20.0213 </r>
       <r>    12.4411     1.9072    20.1718 </r>
       <r>    12.5200     0.0949    20.1793 </r>
       <r>    12.5990     0.8762    20.2485 </r>
       <r>    12.6779     3.4539    20.5212 </r>
       <r>    12.7569     1.7845    20.6620 </r>
       <r>    12.8358     1.9660    20.8172 </r>
       <r>    12.9148     2.5009    21.0147 </r>
       <r>    12.9937     1.5544    21.1374 </r>
       <r>    13.0726     1.6209    21.2653 </r>
       <r>    13.1516     3.4120    21.5347 </r>
       <r>    13.2305     0.9548    21.6101 </r>
       <r>    13.3095     2.4082    21.8002 </r>
       <r>    13.3884     1.7747    21.9403 </r>
       <r>    13.4674     1.4815    22.0572 </r>
       <r>    13.5463     0.0897    22.0643 </r>
       <r>    13.6252     2.1780    22.2362 </r>
       <r>    13.7042     1.1634    22.3281 </r>
       <r>    13.7831     0.4242    22.3616 </r>
       <r>    13.8621     1.9142    22.5127 </r>
       <r>    13.9410     1.3057    22.6158 </r>
       <r>    14.0200     0.0543    22.6201 </r>
       <r>    14.0989     0.1225    22.6297 </r>
       <r>    14.1779     1.2166    22.7258 </r>
       <r>    14.2568     1.7262    22.8620 </r>
       <r>    14.3357     0.7644    22.9224 </r>
       <r>    14.4147     0.2324    22.9407 </r>
       <r>    14.4936     1.2314    23.0379 </r>
       <r>    14.5726     0.9334    23.1116 </r>
       <r>    14.6515     0.0397    23.1148 </r>
       <r>    14.7305     0.8421    23.1812 </r>
       <r>    14.8094     0.0957    23.1888 </r>
       <r>    14.8883     0.0211    23.1905 </r>
       <r>    14.9673     0.7515    23.2498 </r>
       <r>    15.0462     0.6211    23.2988 </r>
       <r>    15.1252     0.0196    23.3004 </r>
       <r>    15.2041     1.4169    23.4122 </r>
       <r>    15.2831     0.1576    23.4247 </r>
       <r>    15.3620     0.5833    23.4707 </r>
       <r>    15.4410     0.9460    23.5454 </r>
       <r>    15.5199    -0.0270    23.5433 </r>
       <r>    15.5988    -0.0007    23.5432 </r>
       <r>    15.6778    -0.0283    23.5410 </r>
       <r>    15.7567     0.6054    23.5888 </r>
       <r>    15.8357     0.3519    23.6165 </r>
       <r>    15.9146     0.6643    23.6690 </r>
       <r>    15.9936     0.7238    23.7261 </r>
       <r>    16.0725    -0.0328    23.7235 </r>
       <r>    16.1514    -0.0002    23.7235 </r>
       <r>    16.2304    -0.0020    23.7234 </r>
       <r>    16.3093     0.0390    23.7264 </r>
       <r>    16.3883     0.4233    23.7599 </r>
       <r>    16.4672     0.8730    23.8288 </r>
       <r>    16.5462     0.0390    23.8318 </r>
       <r>    16.6251     0.0178    23.8332 </r>
       <r>    16.7040     0.1375    23.8441 </r>
       <r>    16.7830    -0.0047    23.8437 </r>
       <r>    16.8619    -0.0048    23.8434 </r>
       <r>    16.9409     0.0983    23.8511 </r>
       <r>    17.0198     0.8453    23.9178 </r>
       <r>    17.0988    -0.0246    23.9159 </r>
       <r>    17.1777    -0.0007    23.9159 </r>
       <r>    17.2567    -0.0000    23.9159 </r>
       <r>    17.3356    -0.0000    23.9159 </r>
       <r>    17.4145    -0.0000    23.9159 </r>
       <r>    17.4935    -0.0002    23.9158 </r>
       <r>    17.5724    -0.0154    23.9146 </r>
       <r>    17.6514     0.3973    23.9460 </r>
       <r>    17.7303     0.0785    23.9522 </r>
       <r>    17.8093    -0.0034    23.9519 </r>
       <r>    17.8882    -0.0000    23.9519 </r>
       <r>    17.9671    -0.0000    23.9519 </r>
       <r>    18.0461    -0.0000    23.9519 </r>
       <r>    18.1250    -0.0039    23.9516 </r>
       <r>    18.2040     0.0887    23.9586 </r>
       <r>    18.2829     0.3862    23.9891 </r>
       <r>    18.3619    -0.0000    23.9891 </r>
       <r>    18.4408     0.1420    24.0003 </r>
       <r>    18.5198    -0.0038    24.0000 </r>
       <r>    18.5987    -0.0001    24.0000 </r>
       <r>    18.6776    -0.0000    24.0000 </r>
       <r>    18.7566    -0.0000    24.0000 </r>
       <r>    18.8355     0.0000    24.0000 </r>
       <r>    18.9145     0.0000    24.0000 </r>
       <r>    18.9934     0.0000    24.0000 </r>
       <r>    19.0724     0.0000    24.0000 </r>
       <r>    19.1513     0.0000    24.0000 </r>
       <r>    19.2302     0.0000    24.0000 </r>
       <r>    19.3092     0.0000    24.0000 </r>
       <r>    19.3881     0.0000    24.0000 </r>
       <r>    19.4671     0.0000    24.0000 </r>
      </set>
     </set>
    </array>
   </total>
  </dos>
 </calculation>
 <structure name="finalpos" >
  <crystal>
   <varray name="basis" >
    <v>       4.04336420       0.00000000       0.00000000 </v>
    <v>       0.00000000       4.04336420       0.00000000 </v>
    <v>       0.00000000       0.00000000       4.04336420 </v>
   </varray>
   <i name="volume">     66.10412879 </i>
   <varray name="rec_basis" >
    <v>       0.24731880       0.00000000       0.00000000 </v>
    <v>       0.00000000       0.24731880       0.00000000 </v>
    <v>       0.00000000       0.00000000       0.24731880 </v>
   </varray>
  </crystal>
  <varray name="positions" >
   <v>       0.00000000       0.00000000       0.00000000 </v>
   <v>       0.00000000       0.50000000       0.50000000 </v>
   <v>       0.50000000       0.00000000       0.50000000 </v>
   <v>       0.50000000       0.50000000       0.00000000 </v>
  </varray>
 </structure>
</modeling>
