<?xml version="1.0" encoding="ISO-8859-1"?>
<modeling>
 <generator>
  <i name="program" type="string">vasp </i>
  <i name="version" type="string">5.4.4.18Apr17-6-g9f103f2a35  </i>
  <i name="subversion" type="string">(build Jun 11 2017 21:30:58) complex            parallel </i>
  <i name="platform" type="string">LinuxIFC </i>
  <i name="date" type="string">2022 07 07 </i>
  <i name="time" type="string">18:39:44 </i>
 </generator>
 <incar>
  <i type="string" name="PREC">accurate</i>
  <i type="string" name="ALGO"> Normal</i>
  <i type="logical" name="ADDGRID"> T  </i>
  <i type="int" name="NELM">   100</i>
  <i type="int" name="NELMIN">     4</i>
  <i type="int" name="IBRION">    -1</i>
  <i name="EDIFF">      0.00005000</i>
  <i name="ENCUT">    520.00000000</i>
  <i type="logical" name="LREAL"> F  </i>
  <i type="int" name="ISMEAR">     1</i>
  <i name="SIGMA">      0.05000000</i>
  <i type="logical" name="LWAVE"> F  </i>
  <i type="logical" name="LCHARG"> F  </i>
  <i type="logical" name="LASPH"> T  </i>
  <v type="int" name="KPOINT_BSE">    -1     0     0     0</v>
  <i type="int" name="NELM">   100</i>
  <i type="logical" name="LASPH"> T  </i>
 </incar>
 <structure name="primitive_cell" >
  <crystal>
   <varray name="basis" >
    <v>      -2.02168200       2.02168200       0.00000000 </v>
    <v>       2.02168200       2.02168200       0.00000000 </v>
    <v>      -0.12130100      -2.02168200      -2.01804000 </v>
   </varray>
   <i name="volume">     16.49625854 </i>
   <varray name="rec_basis" >
    <v>      -0.24731882       0.24731882      -0.23289924 </v>
    <v>       0.24731882       0.24731882      -0.26263108 </v>
    <v>       0.00000000       0.00000000      -0.49553032 </v>
   </varray>
  </crystal>
  <varray name="positions" >
   <v>       0.00000000       0.00000000       0.00000000 </v>
  </varray>
 </structure>
 <varray name="primitive_index" >
  <v type="int" >        1 </v>
 </varray>
 <kpoints>
  <generation param="Gamma">
   <v type="int" name="divisions">      11       11       11 </v>
   <v name="usershift">      0.00000000       0.00000000       0.00000000 </v>
   <v name="genvec1">      0.09090909       0.00000000      -0.00000000 </v>
   <v name="genvec2">      0.00000000       0.09090909       0.00000000 </v>
   <v name="genvec3">      0.00000000       0.00000000       0.09090909 </v>
   <v name="shift">      0.00000000       0.00000000       0.00000000 </v>
  </generation>
  <varray name="kpointlist" >
   <v>       0.00000000       0.00000000       0.00000000 </v>
   <v>       0.09090909       0.00000000       0.00000000 </v>
   <v>       0.18181818       0.00000000       0.00000000 </v>
   <v>       0.27272727       0.00000000       0.00000000 </v>
   <v>       0.36363636       0.00000000       0.00000000 </v>
   <v>       0.45454545       0.00000000       0.00000000 </v>
   <v>       0.00000000       0.09090909       0.00000000 </v>
   <v>       0.09090909       0.09090909       0.00000000 </v>
   <v>       0.18181818       0.09090909       0.00000000 </v>
   <v>       0.27272727       0.09090909       0.00000000 </v>
   <v>       0.36363636       0.09090909       0.00000000 </v>
   <v>       0.45454545       0.09090909       0.00000000 </v>
   <v>       0.00000000       0.18181818       0.00000000 </v>
   <v>       0.09090909       0.18181818       0.00000000 </v>
   <v>       0.18181818       0.18181818       0.00000000 </v>
   <v>       0.27272727       0.18181818       0.00000000 </v>
   <v>       0.36363636       0.18181818       0.00000000 </v>
   <v>       0.45454545       0.18181818       0.00000000 </v>
   <v>       0.00000000       0.27272727       0.00000000 </v>
   <v>       0.09090909       0.27272727       0.00000000 </v>
   <v>       0.18181818       0.27272727       0.00000000 </v>
   <v>       0.27272727       0.27272727       0.00000000 </v>
   <v>       0.36363636       0.27272727       0.00000000 </v>
   <v>       0.45454545       0.27272727       0.00000000 </v>
   <v>       0.00000000       0.36363636       0.00000000 </v>
   <v>       0.09090909       0.36363636       0.00000000 </v>
   <v>       0.18181818       0.36363636       0.00000000 </v>
   <v>       0.27272727       0.36363636       0.00000000 </v>
   <v>       0.36363636       0.36363636       0.00000000 </v>
   <v>       0.45454545       0.36363636       0.00000000 </v>
   <v>       0.00000000       0.45454545       0.00000000 </v>
   <v>       0.09090909       0.45454545       0.00000000 </v>
   <v>       0.18181818       0.45454545       0.00000000 </v>
   <v>       0.27272727       0.45454545       0.00000000 </v>
   <v>       0.36363636       0.45454545       0.00000000 </v>
   <v>       0.45454545       0.45454545       0.00000000 </v>
   <v>       0.09090909       0.00000000       0.09090909 </v>
   <v>       0.18181818       0.00000000       0.09090909 </v>
   <v>       0.27272727       0.00000000       0.09090909 </v>
   <v>       0.36363636       0.00000000       0.09090909 </v>
   <v>       0.45454545       0.00000000       0.09090909 </v>
   <v>      -0.45454545       0.00000000       0.09090909 </v>
   <v>      -0.36363636       0.00000000       0.09090909 </v>
   <v>      -0.27272727       0.00000000       0.09090909 </v>
   <v>      -0.18181818       0.00000000       0.09090909 </v>
   <v>      -0.09090909       0.00000000       0.09090909 </v>
   <v>       0.09090909       0.09090909       0.09090909 </v>
   <v>       0.18181818       0.09090909       0.09090909 </v>
   <v>       0.27272727       0.09090909       0.09090909 </v>
   <v>       0.36363636       0.09090909       0.09090909 </v>
   <v>       0.45454545       0.09090909       0.09090909 </v>
   <v>      -0.45454545       0.09090909       0.09090909 </v>
   <v>      -0.36363636       0.09090909       0.09090909 </v>
   <v>      -0.27272727       0.09090909       0.09090909 </v>
   <v>      -0.18181818       0.09090909       0.09090909 </v>
   <v>      -0.09090909       0.09090909       0.09090909 </v>
   <v>       0.09090909       0.18181818       0.09090909 </v>
   <v>       0.18181818       0.18181818       0.09090909 </v>
   <v>       0.27272727       0.18181818       0.09090909 </v>
   <v>       0.36363636       0.18181818       0.09090909 </v>
   <v>       0.45454545       0.18181818       0.09090909 </v>
   <v>      -0.45454545       0.18181818       0.09090909 </v>
   <v>      -0.36363636       0.18181818       0.09090909 </v>
   <v>      -0.27272727       0.18181818       0.09090909 </v>
   <v>      -0.18181818       0.18181818       0.09090909 </v>
   <v>      -0.09090909       0.18181818       0.09090909 </v>
   <v>       0.09090909       0.27272727       0.09090909 </v>
   <v>       0.18181818       0.27272727       0.09090909 </v>
   <v>       0.27272727       0.27272727       0.09090909 </v>
   <v>       0.36363636       0.27272727       0.09090909 </v>
   <v>       0.45454545       0.27272727       0.09090909 </v>
   <v>      -0.45454545       0.27272727       0.09090909 </v>
   <v>      -0.36363636       0.27272727       0.09090909 </v>
   <v>      -0.27272727       0.27272727       0.09090909 </v>
   <v>      -0.18181818       0.27272727       0.09090909 </v>
   <v>      -0.09090909       0.27272727       0.09090909 </v>
   <v>       0.09090909       0.36363636       0.09090909 </v>
   <v>       0.18181818       0.36363636       0.09090909 </v>
   <v>       0.27272727       0.36363636       0.09090909 </v>
   <v>       0.36363636       0.36363636       0.09090909 </v>
   <v>       0.45454545       0.36363636       0.09090909 </v>
   <v>      -0.45454545       0.36363636       0.09090909 </v>
   <v>      -0.36363636       0.36363636       0.09090909 </v>
   <v>      -0.27272727       0.36363636       0.09090909 </v>
   <v>      -0.18181818       0.36363636       0.09090909 </v>
   <v>      -0.09090909       0.36363636       0.09090909 </v>
   <v>       0.09090909       0.45454545       0.09090909 </v>
   <v>       0.18181818       0.45454545       0.09090909 </v>
   <v>       0.27272727       0.45454545       0.09090909 </v>
   <v>       0.36363636       0.45454545       0.09090909 </v>
   <v>       0.45454545       0.45454545       0.09090909 </v>
   <v>      -0.45454545       0.45454545       0.09090909 </v>
   <v>      -0.36363636       0.45454545       0.09090909 </v>
   <v>      -0.27272727       0.45454545       0.09090909 </v>
   <v>      -0.18181818       0.45454545       0.09090909 </v>
   <v>      -0.09090909       0.45454545       0.09090909 </v>
   <v>       0.18181818       0.00000000       0.18181818 </v>
   <v>       0.27272727       0.00000000       0.18181818 </v>
   <v>       0.36363636       0.00000000       0.18181818 </v>
   <v>       0.45454545       0.00000000       0.18181818 </v>
   <v>      -0.45454545       0.00000000       0.18181818 </v>
   <v>      -0.36363636       0.00000000       0.18181818 </v>
   <v>      -0.27272727       0.00000000       0.18181818 </v>
   <v>      -0.18181818       0.00000000       0.18181818 </v>
   <v>       0.18181818       0.09090909       0.18181818 </v>
   <v>       0.27272727       0.09090909       0.18181818 </v>
   <v>       0.36363636       0.09090909       0.18181818 </v>
   <v>       0.45454545       0.09090909       0.18181818 </v>
   <v>      -0.45454545       0.09090909       0.18181818 </v>
   <v>      -0.36363636       0.09090909       0.18181818 </v>
   <v>      -0.27272727       0.09090909       0.18181818 </v>
   <v>      -0.18181818       0.09090909       0.18181818 </v>
   <v>       0.18181818       0.18181818       0.18181818 </v>
   <v>       0.27272727       0.18181818       0.18181818 </v>
   <v>       0.36363636       0.18181818       0.18181818 </v>
   <v>       0.45454545       0.18181818       0.18181818 </v>
   <v>      -0.45454545       0.18181818       0.18181818 </v>
   <v>      -0.36363636       0.18181818       0.18181818 </v>
   <v>      -0.27272727       0.18181818       0.18181818 </v>
   <v>      -0.18181818       0.18181818       0.18181818 </v>
   <v>       0.18181818       0.27272727       0.18181818 </v>
   <v>       0.27272727       0.27272727       0.18181818 </v>
   <v>       0.36363636       0.27272727       0.18181818 </v>
   <v>       0.45454545       0.27272727       0.18181818 </v>
   <v>      -0.45454545       0.27272727       0.18181818 </v>
   <v>      -0.36363636       0.27272727       0.18181818 </v>
   <v>      -0.27272727       0.27272727       0.18181818 </v>
   <v>      -0.18181818       0.27272727       0.18181818 </v>
   <v>       0.18181818       0.36363636       0.18181818 </v>
   <v>       0.27272727       0.36363636       0.18181818 </v>
   <v>       0.36363636       0.36363636       0.18181818 </v>
   <v>       0.45454545       0.36363636       0.18181818 </v>
   <v>      -0.45454545       0.36363636       0.18181818 </v>
   <v>      -0.36363636       0.36363636       0.18181818 </v>
   <v>      -0.27272727       0.36363636       0.18181818 </v>
   <v>      -0.18181818       0.36363636       0.18181818 </v>
   <v>       0.18181818       0.45454545       0.18181818 </v>
   <v>       0.27272727       0.45454545       0.18181818 </v>
   <v>       0.36363636       0.45454545       0.18181818 </v>
   <v>       0.45454545       0.45454545       0.18181818 </v>
   <v>      -0.45454545       0.45454545       0.18181818 </v>
   <v>      -0.36363636       0.45454545       0.18181818 </v>
   <v>      -0.27272727       0.45454545       0.18181818 </v>
   <v>      -0.18181818       0.45454545       0.18181818 </v>
   <v>       0.27272727       0.00000000       0.27272727 </v>
   <v>       0.36363636       0.00000000       0.27272727 </v>
   <v>       0.45454545       0.00000000       0.27272727 </v>
   <v>      -0.45454545       0.00000000       0.27272727 </v>
   <v>      -0.36363636       0.00000000       0.27272727 </v>
   <v>      -0.27272727       0.00000000       0.27272727 </v>
   <v>       0.27272727       0.09090909       0.27272727 </v>
   <v>       0.36363636       0.09090909       0.27272727 </v>
   <v>       0.45454545       0.09090909       0.27272727 </v>
   <v>      -0.45454545       0.09090909       0.27272727 </v>
   <v>      -0.36363636       0.09090909       0.27272727 </v>
   <v>      -0.27272727       0.09090909       0.27272727 </v>
   <v>       0.27272727       0.18181818       0.27272727 </v>
   <v>       0.36363636       0.18181818       0.27272727 </v>
   <v>       0.45454545       0.18181818       0.27272727 </v>
   <v>      -0.45454545       0.18181818       0.27272727 </v>
   <v>      -0.36363636       0.18181818       0.27272727 </v>
   <v>      -0.27272727       0.18181818       0.27272727 </v>
   <v>       0.27272727       0.27272727       0.27272727 </v>
   <v>       0.36363636       0.27272727       0.27272727 </v>
   <v>       0.45454545       0.27272727       0.27272727 </v>
   <v>      -0.45454545       0.27272727       0.27272727 </v>
   <v>      -0.36363636       0.27272727       0.27272727 </v>
   <v>      -0.27272727       0.27272727       0.27272727 </v>
   <v>       0.27272727       0.36363636       0.27272727 </v>
   <v>       0.36363636       0.36363636       0.27272727 </v>
   <v>       0.45454545       0.36363636       0.27272727 </v>
   <v>      -0.45454545       0.36363636       0.27272727 </v>
   <v>      -0.36363636       0.36363636       0.27272727 </v>
   <v>      -0.27272727       0.36363636       0.27272727 </v>
   <v>       0.27272727       0.45454545       0.27272727 </v>
   <v>       0.36363636       0.45454545       0.27272727 </v>
   <v>       0.45454545       0.45454545       0.27272727 </v>
   <v>      -0.45454545       0.45454545       0.27272727 </v>
   <v>      -0.36363636       0.45454545       0.27272727 </v>
   <v>      -0.27272727       0.45454545       0.27272727 </v>
   <v>       0.36363636       0.00000000       0.36363636 </v>
   <v>       0.45454545       0.00000000       0.36363636 </v>
   <v>      -0.45454545       0.00000000       0.36363636 </v>
   <v>      -0.36363636       0.00000000       0.36363636 </v>
   <v>       0.36363636       0.09090909       0.36363636 </v>
   <v>       0.45454545       0.09090909       0.36363636 </v>
   <v>      -0.45454545       0.09090909       0.36363636 </v>
   <v>      -0.36363636       0.09090909       0.36363636 </v>
   <v>       0.36363636       0.18181818       0.36363636 </v>
   <v>       0.45454545       0.18181818       0.36363636 </v>
   <v>      -0.45454545       0.18181818       0.36363636 </v>
   <v>      -0.36363636       0.18181818       0.36363636 </v>
   <v>       0.36363636       0.27272727       0.36363636 </v>
   <v>       0.45454545       0.27272727       0.36363636 </v>
   <v>      -0.45454545       0.27272727       0.36363636 </v>
   <v>      -0.36363636       0.27272727       0.36363636 </v>
   <v>       0.36363636       0.36363636       0.36363636 </v>
   <v>       0.45454545       0.36363636       0.36363636 </v>
   <v>      -0.45454545       0.36363636       0.36363636 </v>
   <v>      -0.36363636       0.36363636       0.36363636 </v>
   <v>       0.36363636       0.45454545       0.36363636 </v>
   <v>       0.45454545       0.45454545       0.36363636 </v>
   <v>      -0.45454545       0.45454545       0.36363636 </v>
   <v>      -0.36363636       0.45454545       0.36363636 </v>
   <v>       0.45454545       0.00000000       0.45454545 </v>
   <v>      -0.45454545       0.00000000       0.45454545 </v>
   <v>       0.45454545       0.09090909       0.45454545 </v>
   <v>      -0.45454545       0.09090909       0.45454545 </v>
   <v>       0.45454545       0.18181818       0.45454545 </v>
   <v>      -0.45454545       0.18181818       0.45454545 </v>
   <v>       0.45454545       0.27272727       0.45454545 </v>
   <v>      -0.45454545       0.27272727       0.45454545 </v>
   <v>       0.45454545       0.36363636       0.45454545 </v>
   <v>      -0.45454545       0.36363636       0.45454545 </v>
   <v>       0.45454545       0.45454545       0.45454545 </v>
   <v>      -0.45454545       0.45454545       0.45454545 </v>
  </varray>
  <varray name="weights" >
   <v>       0.00075131 </v>
   <v>       0.00300526 </v>
   <v>       0.00300526 </v>
   <v>       0.00300526 </v>
   <v>       0.00300526 </v>
   <v>       0.00300526 </v>
   <v>       0.00150263 </v>
   <v>       0.00601052 </v>
   <v>       0.00601052 </v>
   <v>       0.00601052 </v>
   <v>       0.00601052 </v>
   <v>       0.00601052 </v>
   <v>       0.00150263 </v>
   <v>       0.00601052 </v>
   <v>       0.00601052 </v>
   <v>       0.00601052 </v>
   <v>       0.00601052 </v>
   <v>       0.00601052 </v>
   <v>       0.00150263 </v>
   <v>       0.00601052 </v>
   <v>       0.00601052 </v>
   <v>       0.00601052 </v>
   <v>       0.00601052 </v>
   <v>       0.00601052 </v>
   <v>       0.00150263 </v>
   <v>       0.00601052 </v>
   <v>       0.00601052 </v>
   <v>       0.00601052 </v>
   <v>       0.00601052 </v>
   <v>       0.00601052 </v>
   <v>       0.00150263 </v>
   <v>       0.00601052 </v>
   <v>       0.00601052 </v>
   <v>       0.00601052 </v>
   <v>       0.00601052 </v>
   <v>       0.00601052 </v>
   <v>       0.00150263 </v>
   <v>       0.00300526 </v>
   <v>       0.00300526 </v>
   <v>       0.00300526 </v>
   <v>       0.00300526 </v>
   <v>       0.00300526 </v>
   <v>       0.00300526 </v>
   <v>       0.00300526 </v>
   <v>       0.00300526 </v>
   <v>       0.00150263 </v>
   <v>       0.00300526 </v>
   <v>       0.00601052 </v>
   <v>       0.00601052 </v>
   <v>       0.00601052 </v>
   <v>       0.00601052 </v>
   <v>       0.00601052 </v>
   <v>       0.00601052 </v>
   <v>       0.00601052 </v>
   <v>       0.00601052 </v>
   <v>       0.00300526 </v>
   <v>       0.00300526 </v>
   <v>       0.00601052 </v>
   <v>       0.00601052 </v>
   <v>       0.00601052 </v>
   <v>       0.00601052 </v>
   <v>       0.00601052 </v>
   <v>       0.00601052 </v>
   <v>       0.00601052 </v>
   <v>       0.00601052 </v>
   <v>       0.00300526 </v>
   <v>       0.00300526 </v>
   <v>       0.00601052 </v>
   <v>       0.00601052 </v>
   <v>       0.00601052 </v>
   <v>       0.00601052 </v>
   <v>       0.00601052 </v>
   <v>       0.00601052 </v>
   <v>       0.00601052 </v>
   <v>       0.00601052 </v>
   <v>       0.00300526 </v>
   <v>       0.00300526 </v>
   <v>       0.00601052 </v>
   <v>       0.00601052 </v>
   <v>       0.00601052 </v>
   <v>       0.00601052 </v>
   <v>       0.00601052 </v>
   <v>       0.00601052 </v>
   <v>       0.00601052 </v>
   <v>       0.00601052 </v>
   <v>       0.00300526 </v>
   <v>       0.00300526 </v>
   <v>       0.00601052 </v>
   <v>       0.00601052 </v>
   <v>       0.00601052 </v>
   <v>       0.00601052 </v>
   <v>       0.00601052 </v>
   <v>       0.00601052 </v>
   <v>       0.00601052 </v>
   <v>       0.00601052 </v>
   <v>       0.00300526 </v>
   <v>       0.00150263 </v>
   <v>       0.00300526 </v>
   <v>       0.00300526 </v>
   <v>       0.00300526 </v>
   <v>       0.00300526 </v>
   <v>       0.00300526 </v>
   <v>       0.00300526 </v>
   <v>       0.00150263 </v>
   <v>       0.00300526 </v>
   <v>       0.00601052 </v>
   <v>       0.00601052 </v>
   <v>       0.00601052 </v>
   <v>       0.00601052 </v>
   <v>       0.00601052 </v>
   <v>       0.00601052 </v>
   <v>       0.00300526 </v>
   <v>       0.00300526 </v>
   <v>       0.00601052 </v>
   <v>       0.00601052 </v>
   <v>       0.00601052 </v>
   <v>       0.00601052 </v>
   <v>       0.00601052 </v>
   <v>       0.00601052 </v>
   <v>       0.00300526 </v>
   <v>       0.00300526 </v>
   <v>       0.00601052 </v>
   <v>       0.00601052 </v>
   <v>       0.00601052 </v>
   <v>       0.00601052 </v>
   <v>       0.00601052 </v>
   <v>       0.00601052 </v>
   <v>       0.00300526 </v>
   <v>       0.00300526 </v>
   <v>       0.00601052 </v>
   <v>       0.00601052 </v>
   <v>       0.00601052 </v>
   <v>       0.00601052 </v>
   <v>       0.00601052 </v>
   <v>       0.00601052 </v>
   <v>       0.00300526 </v>
   <v>       0.00300526 </v>
   <v>       0.00601052 </v>
   <v>       0.00601052 </v>
   <v>       0.00601052 </v>
   <v>       0.00601052 </v>
   <v>       0.00601052 </v>
   <v>       0.00601052 </v>
   <v>       0.00300526 </v>
   <v>       0.00150263 </v>
   <v>       0.00300526 </v>
   <v>       0.00300526 </v>
   <v>       0.00300526 </v>
   <v>       0.00300526 </v>
   <v>       0.00150263 </v>
   <v>       0.00300526 </v>
   <v>       0.00601052 </v>
   <v>       0.00601052 </v>
   <v>       0.00601052 </v>
   <v>       0.00601052 </v>
   <v>       0.00300526 </v>
   <v>       0.00300526 </v>
   <v>       0.00601052 </v>
   <v>       0.00601052 </v>
   <v>       0.00601052 </v>
   <v>       0.00601052 </v>
   <v>       0.00300526 </v>
   <v>       0.00300526 </v>
   <v>       0.00601052 </v>
   <v>       0.00601052 </v>
   <v>       0.00601052 </v>
   <v>       0.00601052 </v>
   <v>       0.00300526 </v>
   <v>       0.00300526 </v>
   <v>       0.00601052 </v>
   <v>       0.00601052 </v>
   <v>       0.00601052 </v>
   <v>       0.00601052 </v>
   <v>       0.00300526 </v>
   <v>       0.00300526 </v>
   <v>       0.00601052 </v>
   <v>       0.00601052 </v>
   <v>       0.00601052 </v>
   <v>       0.00601052 </v>
   <v>       0.00300526 </v>
   <v>       0.00150263 </v>
   <v>       0.00300526 </v>
   <v>       0.00300526 </v>
   <v>       0.00150263 </v>
   <v>       0.00300526 </v>
   <v>       0.00601052 </v>
   <v>       0.00601052 </v>
   <v>       0.00300526 </v>
   <v>       0.00300526 </v>
   <v>       0.00601052 </v>
   <v>       0.00601052 </v>
   <v>       0.00300526 </v>
   <v>       0.00300526 </v>
   <v>       0.00601052 </v>
   <v>       0.00601052 </v>
   <v>       0.00300526 </v>
   <v>       0.00300526 </v>
   <v>       0.00601052 </v>
   <v>       0.00601052 </v>
   <v>       0.00300526 </v>
   <v>       0.00300526 </v>
   <v>       0.00601052 </v>
   <v>       0.00601052 </v>
   <v>       0.00300526 </v>
   <v>       0.00150263 </v>
   <v>       0.00150263 </v>
   <v>       0.00300526 </v>
   <v>       0.00300526 </v>
   <v>       0.00300526 </v>
   <v>       0.00300526 </v>
   <v>       0.00300526 </v>
   <v>       0.00300526 </v>
   <v>       0.00300526 </v>
   <v>       0.00300526 </v>
   <v>       0.00300526 </v>
   <v>       0.00300526 </v>
  </varray>
 </kpoints>
 <parameters>
  <separator name="general" >
   <i type="string" name="SYSTEM">unknown system</i>
   <i type="logical" name="LCOMPAT"> F  </i>
  </separator>
  <separator name="electronic" >
   <i type="string" name="PREC">accura</i>
   <i name="ENMAX">    520.00000000</i>
   <i name="ENAUG">    291.05200000</i>
   <i name="EDIFF">      0.00005000</i>
   <i type="int" name="IALGO">    38</i>
   <i type="int" name="IWAVPR">    10</i>
   <i type="int" name="NBANDS">    12</i>
   <i name="NELECT">     12.00000000</i>
   <i type="int" name="TURBO">     0</i>
   <i type="int" name="IRESTART">     0</i>
   <i type="int" name="NREBOOT">     0</i>
   <i type="int" name="NMIN">     0</i>
   <i name="EREF">      0.00000000</i>
   <separator name="electronic smearing" >
    <i type="int" name="ISMEAR">     1</i>
    <i name="SIGMA">      0.05000000</i>
    <i name="KSPACING">      0.50000000</i>
    <i type="logical" name="KGAMMA"> T  </i>
   </separator>
   <separator name="electronic projectors" >
    <i type="logical" name="LREAL"> F  </i>
    <v name="ROPT">      0.00000000</v>
    <i type="int" name="LMAXPAW">  -100</i>
    <i type="int" name="LMAXMIX">     2</i>
    <i type="logical" name="NLSPLINE"> F  </i>
   </separator>
   <separator name="electronic startup" >
    <i type="int" name="ISTART">     0</i>
    <i type="int" name="ICHARG">     2</i>
    <i type="int" name="INIWAV">     1</i>
   </separator>
   <separator name="electronic spin" >
    <i type="int" name="ISPIN">     1</i>
    <i type="logical" name="LNONCOLLINEAR"> F  </i>
    <v name="MAGMOM">      1.00000000      1.00000000      1.00000000      1.00000000</v>
    <i name="NUPDOWN">     -1.00000000</i>
    <i type="logical" name="LSORBIT"> F  </i>
    <v name="SAXIS">      0.00000000      0.00000000      1.00000000</v>
    <i type="logical" name="LSPIRAL"> F  </i>
    <v name="QSPIRAL">      0.00000000      0.00000000      0.00000000</v>
    <i type="logical" name="LZEROZ"> F  </i>
   </separator>
   <separator name="electronic exchange-correlation" >
    <i type="logical" name="LASPH"> T  </i>
    <i type="logical" name="LMETAGGA"> F  </i>
   </separator>
   <separator name="electronic convergence" >
    <i type="int" name="NELM">   100</i>
    <i type="int" name="NELMDL">    -5</i>
    <i type="int" name="NELMIN">     4</i>
    <i name="ENINI">    520.00000000</i>
    <separator name="electronic convergence detail" >
     <i type="logical" name="LDIAG"> T  </i>
     <i type="logical" name="LSUBROT"> F  </i>
     <i name="WEIMIN">      0.00000000</i>
     <i name="EBREAK">      0.00000104</i>
     <i name="DEPER">      0.30000000</i>
     <i type="int" name="NRMM">     4</i>
     <i name="TIME">      0.40000000</i>
    </separator>
   </separator>
   <separator name="electronic mixer" >
    <i name="AMIX">      0.40000000</i>
    <i name="BMIX">      1.00000000</i>
    <i name="AMIN">      0.10000000</i>
    <i name="AMIX_MAG">      1.60000000</i>
    <i name="BMIX_MAG">      1.00000000</i>
    <separator name="electronic mixer details" >
     <i type="int" name="IMIX">     4</i>
     <i type="logical" name="MIXFIRST"> F  </i>
     <i type="int" name="MAXMIX">   -45</i>
     <i name="WC">    100.00000000</i>
     <i type="int" name="INIMIX">     1</i>
     <i type="int" name="MIXPRE">     1</i>
     <i type="int" name="MREMOVE">     5</i>
    </separator>
   </separator>
   <separator name="electronic dipolcorrection" >
    <i type="logical" name="LDIPOL"> F  </i>
    <i type="logical" name="LMONO"> F  </i>
    <i type="int" name="IDIPOL">     0</i>
    <i name="EPSILON">      1.00000000</i>
    <v name="DIPOL">   -100.00000000   -100.00000000   -100.00000000</v>
    <i name="EFIELD">      0.00000000</i>
   </separator>
  </separator>
  <separator name="grids" >
   <i type="int" name="NGX">    30</i>
   <i type="int" name="NGY">    30</i>
   <i type="int" name="NGZ">    30</i>
   <i type="int" name="NGXF">    60</i>
   <i type="int" name="NGYF">    60</i>
   <i type="int" name="NGZF">    60</i>
   <i type="logical" name="ADDGRID"> T  </i>
  </separator>
  <separator name="ionic" >
   <i type="int" name="NSW">     0</i>
   <i type="int" name="IBRION">    -1</i>
   <i type="int" name="MDALGO">     0</i>
   <i type="int" name="ISIF">     2</i>
   <i name="PSTRESS">      0.00000000</i>
   <i name="EDIFFG">      0.00050000</i>
   <i type="int" name="NFREE">     0</i>
   <i name="POTIM">      0.50000000</i>
   <i name="SMASS">     -3.00000000</i>
   <i name="SCALEE">      1.00000000</i>
  </separator>
  <separator name="ionic md" >
   <i name="TEBEG">      0.00010000</i>
   <i name="TEEND">      0.00010000</i>
   <i type="int" name="NBLOCK">     1</i>
   <i type="int" name="KBLOCK">     1</i>
   <i type="int" name="NPACO">   256</i>
   <i name="APACO">     16.00000000</i>
  </separator>
  <separator name="symmetry" >
   <i type="int" name="ISYM">     2</i>
   <i name="SYMPREC">      0.00001000</i>
  </separator>
  <separator name="dos" >
   <i type="int" name="LORBIT">     0</i>
   <v name="RWIGS">     -1.00000000</v>
   <i type="int" name="NEDOS">   301</i>
   <i name="EMIN">     10.00000000</i>
   <i name="EMAX">    -10.00000000</i>
   <i name="EFERMI">      0.00000000</i>
  </separator>
  <separator name="writing" >
   <i type="int" name="NWRITE">     2</i>
   <i type="logical" name="LWAVE"> F  </i>
   <i type="logical" name="LDOWNSAMPLE"> F  </i>
   <i type="logical" name="LCHARG"> F  </i>
   <i type="logical" name="LPARD"> F  </i>
   <i type="logical" name="LVTOT"> F  </i>
   <i type="logical" name="LVHAR"> F  </i>
   <i type="logical" name="LELF"> F  </i>
   <i type="logical" name="LOPTICS"> F  </i>
   <v name="STM">      0.00000000      0.00000000      0.00000000      0.00000000      0.00000000      0.00000000      0.00000000</v>
  </separator>
  <separator name="performance" >
   <i type="int" name="NPAR">     4</i>
   <i type="int" name="NSIM">     4</i>
   <i type="int" name="NBLK">    -1</i>
   <i type="logical" name="LPLANE"> T  </i>
   <i type="logical" name="LSCALAPACK"> T  </i>
   <i type="logical" name="LSCAAWARE"> F  </i>
   <i type="logical" name="LSCALU"> F  </i>
   <i type="logical" name="LASYNC"> F  </i>
   <i type="logical" name="LORBITALREAL"> F  </i>
  </separator>
  <separator name="miscellaneous" >
   <i type="int" name="IDIOT">     3</i>
   <i type="int" name="ISPECIAL">     0</i>
   <i type="logical" name="LMUSIC"> F  </i>
   <v name="POMASS">     26.98100000</v>
   <v name="DARWINR">      0.00000000</v>
   <v name="DARWINV">      1.00000000</v>
   <i type="logical" name="LCORR"> T  </i>
  </separator>
  <i type="logical" name="GGA_COMPAT"> T  </i>
  <i type="logical" name="LBERRY"> F  </i>
  <i type="int" name="ICORELEVEL">     0</i>
  <i type="logical" name="LDAU"> F  </i>
  <i type="int" name="I_CONSTRAINED_M">     0</i>
  <separator name="electronic exchange-correlation" >
   <i type="string" name="GGA">--</i>
   <i type="int" name="VOSKOWN">     0</i>
   <i type="logical" name="LHFCALC"> F  </i>
   <i type="string" name="PRECFOCK"></i>
   <i type="logical" name="LSYMGRAD"> F  </i>
   <i type="logical" name="LHFONE"> F  </i>
   <i type="logical" name="LRHFCALC"> F  </i>
   <i type="logical" name="LTHOMAS"> F  </i>
   <i type="logical" name="LMODELHF"> F  </i>
   <i name="ENCUT4O">     -1.00000000</i>
   <i type="int" name="EXXOEP">     0</i>
   <i type="int" name="FOURORBIT">     0</i>
   <i name="AEXX">      0.00000000</i>
   <i name="HFALPHA">      0.00000000</i>
   <i name="MCALPHA">      0.00000000</i>
   <i name="ALDAX">      1.00000000</i>
   <i name="AGGAX">      1.00000000</i>
   <i name="ALDAC">      1.00000000</i>
   <i name="AGGAC">      1.00000000</i>
   <i type="int" name="NKREDX">     1</i>
   <i type="int" name="NKREDY">     1</i>
   <i type="int" name="NKREDZ">     1</i>
   <i type="logical" name="SHIFTRED"> F  </i>
   <i type="logical" name="ODDONLY"> F  </i>
   <i type="logical" name="EVENONLY"> F  </i>
   <i type="int" name="LMAXFOCK">     0</i>
   <i type="int" name="NMAXFOCKAE">     0</i>
   <i type="logical" name="LFOCKAEDFT"> F  </i>
   <i name="HFSCREEN">      0.00000000</i>
   <i name="HFSCREENC">      0.00000000</i>
   <i type="int" name="NBANDSGWLOW">     0</i>
  </separator>
  <separator name="vdW DFT" >
   <i type="logical" name="LUSE_VDW"> F  </i>
   <i name="Zab_VDW">     -0.84910000</i>
   <i name="PARAM1">      0.12340000</i>
   <i name="PARAM2">      1.00000000</i>
   <i name="PARAM3">      0.00000000</i>
  </separator>
  <separator name="model GW" >
   <i type="int" name="MODEL_GW">     0</i>
   <i name="MODEL_EPS0">      9.89775513</i>
   <i name="MODEL_ALPHA">      1.00000000</i>
  </separator>
  <separator name="linear response parameters" >
   <i type="logical" name="LEPSILON"> F  </i>
   <i type="logical" name="LRPA"> F  </i>
   <i type="logical" name="LNABLA"> F  </i>
   <i type="logical" name="LVEL"> F  </i>
   <i type="int" name="KINTER">     0</i>
   <i name="CSHIFT">      0.10000000</i>
   <i name="OMEGAMAX">     -1.00000000</i>
   <i name="DEG_THRESHOLD">      0.00200000</i>
   <i name="RTIME">     -0.10000000</i>
   <i name="WPLASMAI">      0.00000000</i>
   <v name="DFIELD">      0.00000000      0.00000000      0.00000000</v>
   <v name="WPLASMA">      0.00000000      0.00000000      0.00000000      0.00000000      0.00000000      0.00000000      0.00000000      0.00000000      0.00000000</v>
  </separator>
  <separator name="orbital magnetization" >
   <i type="logical" name="NUCIND"> F  </i>
   <v name="MAGPOS">      0.00000000      0.00000000      0.00000000</v>
   <i type="logical" name="LNICSALL"> T  </i>
   <i type="logical" name="ORBITALMAG"> F  </i>
   <i type="logical" name="LMAGBLOCH"> F  </i>
   <i type="logical" name="LCHIMAG"> F  </i>
   <i type="logical" name="LGAUGE"> T  </i>
   <i type="int" name="MAGATOM">     0</i>
   <v name="MAGDIPOL">      0.00000000      0.00000000      0.00000000</v>
   <v name="AVECCONST">      0.00000000      0.00000000      0.00000000</v>
  </separator>
  <separator name="response functions" >
   <i type="logical" name="LADDER"> F  </i>
   <i type="logical" name="LRPAFORCE"> F  </i>
   <i type="logical" name="LFXC"> F  </i>
   <i type="logical" name="LHARTREE"> T  </i>
   <i type="int" name="IBSE">     0</i>
   <v type="int" name="KPOINT">    -1     0     0     0</v>
   <i type="logical" name="LTCTE"> F  </i>
   <i type="logical" name="LTETE"> F  </i>
   <i type="logical" name="LTRIPLET"> F  </i>
   <i type="logical" name="LFXCEPS"> F  </i>
   <i type="logical" name="LFXHEG"> F  </i>
   <i type="int" name="NATURALO">     2</i>
   <i type="logical" name="L2ORDER"> F  </i>
   <i type="logical" name="LMP2LT"> F  </i>
   <i type="logical" name="LUSEW"> F  </i>
   <i name="ENCUTGW">     -2.00000000</i>
   <i name="ENCUTGWSOFT">     -2.00000000</i>
   <i name="ENCUTLF">     -1.00000000</i>
   <i type="int" name="LMAXMP2">    -1</i>
   <i name="SCISSOR">      0.00000000</i>
   <i type="int" name="NOMEGA">     0</i>
   <i type="int" name="NOMEGAR">     0</i>
   <i type="int" name="NBANDSGW">    -1</i>
   <i type="int" name="NBANDSO">    -1</i>
   <i type="int" name="NBANDSV">    -1</i>
   <i type="int" name="NELM">   100</i>
   <i type="int" name="NELMHF">     1</i>
   <i type="int" name="DIM">     3</i>
   <i type="int" name="ANTIRES">     0</i>
   <i name="OMEGAMAX">    -30.00000000</i>
   <i name="OMEGAMIN">    -30.00000000</i>
   <i name="OMEGATL">   -200.00000000</i>
   <i type="int" name="OMEGAGRID">   140</i>
   <i name="CSHIFT">     -0.10000000</i>
   <i type="logical" name="SELFENERGY"> F  </i>
   <i type="logical" name="LSPECTRAL"> F  </i>
   <i type="logical" name="LSPECTRALGW"> F  </i>
   <i type="logical" name="LSINGLES"> F  </i>
   <i type="logical" name="LFERMIGW"> F  </i>
   <i type="logical" name="ODDONLYGW"> F  </i>
   <i type="logical" name="EVENONLYGW"> F  </i>
   <i type="int" name="NKREDLFX">     1</i>
   <i type="int" name="NKREDLFY">     1</i>
   <i type="int" name="NKREDLFZ">     1</i>
   <i type="int" name="MAXMEM">  2800</i>
   <i type="int" name="TELESCOPE">     0</i>
   <i type="int" name="TAUPAR">     1</i>
   <i type="int" name="OMEGAPAR">    -1</i>
   <i name="LAMBDA">      1.00000000</i>
  </separator>
  <separator name="External order field" >
   <i name="OFIELD_KAPPA">      0.00000000</i>
   <v name="OFIELD_K">      0.00000000      0.00000000      0.00000000</v>
   <i name="OFIELD_Q6_NEAR">      0.00000000</i>
   <i name="OFIELD_Q6_FAR">      0.00000000</i>
   <i name="OFIELD_A">      0.00000000</i>
  </separator>
 </parameters>
 <atominfo>
  <atoms>       4 </atoms>
  <types>       1 </types>
  <array name="atoms" >
   <dimension dim="1">ion</dimension>
   <field type="string">element</field>
   <field type="int">atomtype</field>
   <set>
    <rc><c>Al</c><c>   1</c></rc>
    <rc><c>Al</c><c>   1</c></rc>
    <rc><c>Al</c><c>   1</c></rc>
    <rc><c>Al</c><c>   1</c></rc>
   </set>
  </array>
  <array name="atomtypes" >
   <dimension dim="1">type</dimension>
   <field type="int">atomspertype</field>
   <field type="string">element</field>
   <field>mass</field>
   <field>valence</field>
   <field type="string">pseudopotential</field>
   <set>
    <rc><c>   4</c><c>Al</c><c>     26.98100000</c><c>      3.00000000</c><c>  PAW_PBE Al 04Jan2001                  </c></rc>
   </set>
  </array>
 </atominfo>
 <structure name="initialpos" >
  <crystal>
   <varray name="basis" >
    <v>       4.04336400       0.00000000       0.00000000 </v>
    <v>       0.00000000       4.04336400       0.00000000 </v>
    <v>       0.24260200       0.00000000       4.03608000 </v>
   </varray>
   <i name="volume">     65.98503418 </i>
   <varray name="rec_basis" >
    <v>       0.24731882       0.00000000      -0.01486592 </v>
    <v>       0.00000000       0.24731882       0.00000000 </v>
    <v>       0.00000000       0.00000000       0.24776516 </v>
   </varray>
  </crystal>
  <varray name="positions" >
   <v>       0.00000000       0.00000000       0.00000000 </v>
   <v>       0.00000000       0.50000000       0.50000000 </v>
   <v>       0.50000000       0.00000000       0.50000000 </v>
   <v>       0.50000000       0.50000000       0.00000000 </v>
  </varray>
 </structure>
 <calculation>
  <scstep>
   <time name="dav">    0.78    0.82</time>
   <time name="total">    0.87    0.92</time>
   <energy>
    <i name="alphaZ">     -0.81444162 </i>
    <i name="ewald">   -293.97494568 </i>
    <i name="hartreedc">     -0.42384070 </i>
    <i name="XCdc">   -104.95565104 </i>
    <i name="pawpsdc">    264.80062850 </i>
    <i name="pawaedc">   -136.98248303 </i>
    <i name="eentropy">     -0.00026140 </i>
    <i name="bandstr">     66.09105874 </i>
    <i name="atom">    214.15382826 </i>
    <i name="e_fr_energy">      7.89389203 </i>
    <i name="e_wo_entrp">      7.89415343 </i>
    <i name="e_0_energy">      7.89397916 </i>
   </energy>
  </scstep>
  <scstep>
   <time name="dav">    0.90    0.90</time>
   <time name="total">    0.90    0.90</time>
   <energy>
    <i name="e_fr_energy">    -14.28569304 </i>
    <i name="e_wo_entrp">    -14.28536419 </i>
    <i name="e_0_energy">    -14.28558342 </i>
   </energy>
  </scstep>
  <scstep>
   <time name="dav">    0.94    0.94</time>
   <time name="total">    0.94    0.94</time>
   <energy>
    <i name="e_fr_energy">    -15.03360754 </i>
    <i name="e_wo_entrp">    -15.03327636 </i>
    <i name="e_0_energy">    -15.03349714 </i>
   </energy>
  </scstep>
  <scstep>
   <time name="dav">    0.84    0.84</time>
   <time name="total">    0.84    0.85</time>
   <energy>
    <i name="e_fr_energy">    -15.03930975 </i>
    <i name="e_wo_entrp">    -15.03896332 </i>
    <i name="e_0_energy">    -15.03919427 </i>
   </energy>
  </scstep>
  <scstep>
   <time name="dav">    0.90    0.90</time>
   <time name="total">    0.97    0.97</time>
   <energy>
    <i name="e_fr_energy">    -15.03936643 </i>
    <i name="e_wo_entrp">    -15.03901999 </i>
    <i name="e_0_energy">    -15.03925095 </i>
   </energy>
  </scstep>
  <scstep>
   <time name="dav">    0.84    0.84</time>
   <time name="total">    0.99    0.99</time>
   <energy>
    <i name="e_fr_energy">    -14.98762388 </i>
    <i name="e_wo_entrp">    -14.98730483 </i>
    <i name="e_0_energy">    -14.98751753 </i>
   </energy>
  </scstep>
  <scstep>
   <time name="dav">    0.81    0.81</time>
   <time name="total">    0.96    0.96</time>
   <energy>
    <i name="e_fr_energy">    -14.94997493 </i>
    <i name="e_wo_entrp">    -14.94970503 </i>
    <i name="e_0_energy">    -14.94988496 </i>
   </energy>
  </scstep>
  <scstep>
   <time name="dav">    0.91    0.91</time>
   <time name="total">    1.06    1.06</time>
   <energy>
    <i name="e_fr_energy">    -14.94987115 </i>
    <i name="e_wo_entrp">    -14.94960377 </i>
    <i name="e_0_energy">    -14.94978202 </i>
   </energy>
  </scstep>
  <scstep>
   <time name="dav">    0.60    0.60</time>
   <time name="total">    0.69    0.69</time>
   <energy>
    <i name="alphaZ">     -0.81444162 </i>
    <i name="ewald">   -293.97494568 </i>
    <i name="hartreedc">     -0.45341055 </i>
    <i name="XCdc">   -104.51412859 </i>
    <i name="pawpsdc">    565.74870000 </i>
    <i name="pawaedc">   -437.98453187 </i>
    <i name="eentropy">     -0.00026669 </i>
    <i name="bandstr">     42.88933233 </i>
    <i name="atom">    214.15382826 </i>
    <i name="e_fr_energy">    -14.94986442 </i>
    <i name="e_wo_entrp">    -14.94959772 </i>
    <i name="e_0_energy">    -14.94977552 </i>
   </energy>
  </scstep>
  <structure>
   <crystal>
    <varray name="basis" >
     <v>       4.04336400       0.00000000       0.00000000 </v>
     <v>       0.00000000       4.04336400       0.00000000 </v>
     <v>       0.24260200       0.00000000       4.03608000 </v>
    </varray>
    <i name="volume">     65.98503418 </i>
    <varray name="rec_basis" >
     <v>       0.24731882       0.00000000      -0.01486592 </v>
     <v>       0.00000000       0.24731882       0.00000000 </v>
     <v>       0.00000000       0.00000000       0.24776516 </v>
    </varray>
   </crystal>
   <varray name="positions" >
    <v>       0.00000000       0.00000000       0.00000000 </v>
    <v>       0.00000000       0.50000000       0.50000000 </v>
    <v>       0.50000000       0.00000000       0.50000000 </v>
    <v>       0.50000000       0.50000000       0.00000000 </v>
   </varray>
  </structure>
  <varray name="forces" >
   <v>      -0.00000000       0.00000000      -0.00000000 </v>
   <v>       0.00000000      -0.00000000       0.00000000 </v>
   <v>      -0.00000000      -0.00000000      -0.00000000 </v>
   <v>       0.00000000      -0.00000000      -0.00000000 </v>
  </varray>
  <varray name="stress" >
   <v>       3.77276690       0.00000000     -21.69988129 </v>
   <v>       0.00000000      -0.58816643       0.00000000 </v>
   <v>     -21.69988129       0.00000000       6.38145582 </v>
  </varray>
  <energy>
   <i name="e_fr_energy">    -14.94986442 </i>
   <i name="e_wo_entrp">    -14.94977552 </i>
   <i name="e_0_energy">     -0.00026669 </i>
  </energy>
  <time name="totalsc">    9.20    9.36</time>
  <eigenvalues>
   <array>
    <dimension dim="1">band</dimension>
    <dimension dim="2">kpoint</dimension>
    <dimension dim="3">spin</dimension>
    <field>eigene</field>
    <field>occ</field>
    <set>
     <set comment="spin 1">
      <set comment="kpoint 1">
       <r>   -3.1355    1.0000 </r>
       <r>    5.0695    1.0000 </r>
       <r>    5.0856    1.0000 </r>
       <r>    5.0856    1.0000 </r>
       <r>    6.3799    1.0000 </r>
       <r>    6.4261    1.0000 </r>
       <r>    6.4261    1.0000 </r>
       <r>   12.5610    0.0000 </r>
       <r>   13.0593    0.0000 </r>
       <r>   13.2658    0.0000 </r>
       <r>   13.2658    0.0000 </r>
       <r>   13.6077    0.0000 </r>
      </set>
      <set comment="kpoint 2">
       <r>   -3.0605    1.0000 </r>
       <r>    4.1110    1.0000 </r>
       <r>    5.1382    1.0000 </r>
       <r>    5.1478    1.0000 </r>
       <r>    6.4523    1.0000 </r>
       <r>    6.5047    1.0000 </r>
       <r>    7.5300    1.0000 </r>
       <r>   11.5129    0.0000 </r>
       <r>   11.9734    0.0000 </r>
       <r>   13.0986    0.0000 </r>
       <r>   13.3167    0.0000 </r>
       <r>   13.3864    0.0000 </r>
      </set>
      <set comment="kpoint 3">
       <r>   -2.8354    1.0000 </r>
       <r>    2.8018    1.0000 </r>
       <r>    5.3351    1.0000 </r>
       <r>    5.3444    1.0000 </r>
       <r>    6.6679    1.0000 </r>
       <r>    6.7381    1.0000 </r>
       <r>    9.2262   -0.0000 </r>
       <r>   10.3014    0.0000 </r>
       <r>   10.6606    0.0000 </r>
       <r>   12.0925    0.0000 </r>
       <r>   12.4717    0.0000 </r>
       <r>   13.4762    0.0000 </r>
      </set>
      <set comment="kpoint 4">
       <r>   -2.4612    1.0000 </r>
       <r>    1.5852    1.0000 </r>
       <r>    5.6494    1.0000 </r>
       <r>    5.6883    1.0000 </r>
       <r>    7.0218    1.0000 </r>
       <r>    7.1186    1.0000 </r>
       <r>    9.1988   -0.0000 </r>
       <r>    9.4844    0.0000 </r>
       <r>   11.0341    0.0000 </r>
       <r>   11.0847    0.0000 </r>
       <r>   11.3636    0.0000 </r>
       <r>   13.7558    0.0000 </r>
      </set>
      <set comment="kpoint 5">
       <r>   -1.9390    1.0000 </r>
       <r>    0.4955    1.0000 </r>
       <r>    6.0931    1.0000 </r>
       <r>    6.1702    1.0000 </r>
       <r>    7.4969    1.0000 </r>
       <r>    7.6242    1.0000 </r>
       <r>    8.2266   -0.0000 </r>
       <r>    8.4472   -0.0000 </r>
       <r>   10.0660    0.0000 </r>
       <r>   10.3308    0.0000 </r>
       <r>   13.0578    0.0000 </r>
       <r>   14.1617    0.0000 </r>
      </set>
      <set comment="kpoint 6">
       <r>   -1.2705    1.0000 </r>
       <r>   -0.4580    1.0000 </r>
       <r>    6.6682    1.0000 </r>
       <r>    6.7904    1.0000 </r>
       <r>    7.3739    1.0000 </r>
       <r>    7.5493    1.0000 </r>
       <r>    8.0405   -0.0082 </r>
       <r>    8.1386   -0.0002 </r>
       <r>    9.3397   -0.0000 </r>
       <r>    9.4892    0.0000 </r>
       <r>   14.6960    0.0000 </r>
       <r>   14.9081    0.0000 </r>
      </set>
      <set comment="kpoint 7">
       <r>   -3.0607    1.0000 </r>
       <r>    4.0900    1.0000 </r>
       <r>    5.1537    1.0000 </r>
       <r>    5.1537    1.0000 </r>
       <r>    6.4985    1.0000 </r>
       <r>    6.4985    1.0000 </r>
       <r>    7.4887    1.0000 </r>
       <r>   11.9762    0.0000 </r>
       <r>   11.9762    0.0000 </r>
       <r>   12.6251    0.0000 </r>
       <r>   13.1081    0.0000 </r>
       <r>   13.1082    0.0000 </r>
      </set>
      <set comment="kpoint 8">
       <r>   -2.9857    1.0000 </r>
       <r>    4.1607    1.0000 </r>
       <r>    4.1813    1.0000 </r>
       <r>    5.2159    1.0000 </r>
       <r>    6.5764    1.0000 </r>
       <r>    7.5586    1.0000 </r>
       <r>    7.5995    1.0000 </r>
       <r>   11.0313    0.0000 </r>
       <r>   11.5812    0.0000 </r>
       <r>   12.0400    0.0000 </r>
       <r>   13.1794    0.0000 </r>
       <r>   13.4547    0.0000 </r>
      </set>
      <set comment="kpoint 9">
       <r>   -2.7608    1.0000 </r>
       <r>    2.8733    1.0000 </r>
       <r>    4.3726    1.0000 </r>
       <r>    5.4033    1.0000 </r>
       <r>    6.8068    1.0000 </r>
       <r>    7.7671    1.0000 </r>
       <r>    9.2922   -0.0000 </r>
       <r>    9.7804    0.0000 </r>
       <r>   10.3702    0.0000 </r>
       <r>   12.2324    0.0000 </r>
       <r>   12.5413    0.0000 </r>
       <r>   13.0517    0.0000 </r>
      </set>
      <set comment="kpoint 10">
       <r>   -2.3868    1.0000 </r>
       <r>    1.6575    1.0000 </r>
       <r>    4.7250    1.0000 </r>
       <r>    5.7176    1.0000 </r>
       <r>    7.1727    1.0000 </r>
       <r>    8.1075   -0.0037 </r>
       <r>    8.6376   -0.0000 </r>
       <r>    9.2682   -0.0000 </r>
       <r>   11.1394    0.0000 </r>
       <r>   11.4387    0.0000 </r>
       <r>   12.0126    0.0000 </r>
       <r>   12.5613    0.0000 </r>
      </set>
      <set comment="kpoint 11">
       <r>   -1.8648    1.0000 </r>
       <r>    0.5684    1.0000 </r>
       <r>    5.2167    1.0000 </r>
       <r>    6.1607    1.0000 </r>
       <r>    7.3764    1.0000 </r>
       <r>    7.9230    1.0291 </r>
       <r>    8.2856   -0.0000 </r>
       <r>    8.5633   -0.0000 </r>
       <r>   10.4265    0.0000 </r>
       <r>   11.0336    0.0000 </r>
       <r>   12.8484    0.0000 </r>
       <r>   13.2792    0.0000 </r>
      </set>
      <set comment="kpoint 12">
       <r>   -1.1967    1.0000 </r>
       <r>   -0.3846    1.0000 </r>
       <r>    5.8447    1.0000 </r>
       <r>    6.5864    1.0000 </r>
       <r>    6.7547    1.0000 </r>
       <r>    7.4485    1.0000 </r>
       <r>    8.4243   -0.0000 </r>
       <r>    8.8895   -0.0000 </r>
       <r>    9.7788    0.0000 </r>
       <r>   10.1967    0.0000 </r>
       <r>   13.5205    0.0000 </r>
       <r>   14.2249    0.0000 </r>
      </set>
      <set comment="kpoint 13">
       <r>   -2.8365    1.0000 </r>
       <r>    2.7827    1.0000 </r>
       <r>    5.3581    1.0000 </r>
       <r>    5.3581    1.0000 </r>
       <r>    6.7141    1.0000 </r>
       <r>    6.7141    1.0000 </r>
       <r>    9.1834   -0.0000 </r>
       <r>   10.6698    0.0000 </r>
       <r>   10.6698    0.0000 </r>
       <r>   12.1032    0.0000 </r>
       <r>   12.1032    0.0000 </r>
       <r>   12.8174    0.0000 </r>
      </set>
      <set comment="kpoint 14">
       <r>   -2.7616    1.0000 </r>
       <r>    2.8545    1.0000 </r>
       <r>    4.3921    1.0000 </r>
       <r>    5.4204    1.0000 </r>
       <r>    6.7892    1.0000 </r>
       <r>    7.8065    1.0000 </r>
       <r>    9.2508   -0.0000 </r>
       <r>    9.7852    0.0000 </r>
       <r>   10.7355    0.0000 </r>
       <r>   11.7860    0.0000 </r>
       <r>   12.1774    0.0000 </r>
       <r>   13.0659    0.0000 </r>
      </set>
      <set comment="kpoint 15">
       <r>   -2.5371    1.0000 </r>
       <r>    3.0697    1.0000 </r>
       <r>    3.0876    1.0000 </r>
       <r>    5.6076    1.0000 </r>
       <r>    7.0024    1.0000 </r>
       <r>    8.5620   -0.0000 </r>
       <r>    9.4495    0.0000 </r>
       <r>    9.4829    0.0000 </r>
       <r>   10.5771    0.0000 </r>
       <r>   10.9379    0.0000 </r>
       <r>   12.4007    0.0000 </r>
       <r>   12.7515    0.0000 </r>
      </set>
      <set comment="kpoint 16">
       <r>   -2.1637    1.0000 </r>
       <r>    1.8741    1.0000 </r>
       <r>    3.4276    1.0000 </r>
       <r>    5.9207    1.0000 </r>
       <r>    7.1043    1.0000 </r>
       <r>    7.6837    1.0000 </r>
       <r>    9.4708    0.0000 </r>
       <r>    9.7656    0.0000 </r>
       <r>   11.0927    0.0000 </r>
       <r>   11.4877    0.0000 </r>
       <r>   11.6750    0.0000 </r>
       <r>   12.7812    0.0000 </r>
      </set>
      <set comment="kpoint 17">
       <r>   -1.6426    1.0000 </r>
       <r>    0.7868    1.0000 </r>
       <r>    3.9269    1.0000 </r>
       <r>    6.2070    1.0000 </r>
       <r>    6.4004    1.0000 </r>
       <r>    8.0350    0.0175 </r>
       <r>    8.4985   -0.0000 </r>
       <r>   10.0119    0.0000 </r>
       <r>   10.8559    0.0000 </r>
       <r>   11.6554    0.0000 </r>
       <r>   12.6319    0.0000 </r>
       <r>   13.0851    0.0000 </r>
      </set>
      <set comment="kpoint 18">
       <r>   -0.9755    1.0000 </r>
       <r>   -0.1647    1.0000 </r>
       <r>    4.5654    1.0000 </r>
       <r>    5.3383    1.0000 </r>
       <r>    6.9486    1.0000 </r>
       <r>    7.6564    1.0000 </r>
       <r>    8.6877   -0.0000 </r>
       <r>    9.4543    0.0000 </r>
       <r>   11.0858    0.0000 </r>
       <r>   11.7831    0.0000 </r>
       <r>   12.2408    0.0000 </r>
       <r>   12.9480    0.0000 </r>
      </set>
      <set comment="kpoint 19">
       <r>   -2.4637    1.0000 </r>
       <r>    1.5694    1.0000 </r>
       <r>    5.6983    1.0000 </r>
       <r>    5.6983    1.0000 </r>
       <r>    7.0683    1.0000 </r>
       <r>    7.0683    1.0000 </r>
       <r>    9.5008    0.0000 </r>
       <r>    9.5008    0.0000 </r>
       <r>   11.0405    0.0000 </r>
       <r>   11.0438    0.0000 </r>
       <r>   11.0438    0.0000 </r>
       <r>   13.1382    0.0000 </r>
      </set>
      <set comment="kpoint 20">
       <r>   -2.3889    1.0000 </r>
       <r>    1.6419    1.0000 </r>
       <r>    4.7424    1.0000 </r>
       <r>    5.7603    1.0000 </r>
       <r>    7.1304    1.0000 </r>
       <r>    8.1417   -0.0002 </r>
       <r>    8.6455   -0.0000 </r>
       <r>    9.5710    0.0000 </r>
       <r>   11.1030    0.0000 </r>
       <r>   11.1236    0.0000 </r>
       <r>   12.0294    0.0000 </r>
       <r>   12.1272    0.0000 </r>
      </set>
      <set comment="kpoint 21">
       <r>   -2.1650    1.0000 </r>
       <r>    1.8594    1.0000 </r>
       <r>    3.4439    1.0000 </r>
       <r>    5.9455    1.0000 </r>
       <r>    7.1010    1.0000 </r>
       <r>    7.6656    1.0000 </r>
       <r>    9.6107    0.0000 </r>
       <r>    9.9514    0.0000 </r>
       <r>   10.9176    0.0000 </r>
       <r>   11.2825    0.0000 </r>
       <r>   11.3743    0.0000 </r>
       <r>   13.1132    0.0000 </r>
      </set>
      <set comment="kpoint 22">
       <r>   -1.7926    1.0000 </r>
       <r>    2.2210    1.0000 </r>
       <r>    2.2343    1.0000 </r>
       <r>    6.0696    1.0000 </r>
       <r>    6.3102    1.0000 </r>
       <r>    7.8632    1.0005 </r>
       <r>    9.8185    0.0000 </r>
       <r>   10.0419    0.0000 </r>
       <r>   11.4148    0.0000 </r>
       <r>   11.4170    0.0000 </r>
       <r>   12.0216    0.0000 </r>
       <r>   12.2117    0.0000 </r>
      </set>
      <set comment="kpoint 23">
       <r>   -1.2729    1.0000 </r>
       <r>    1.1501    1.0000 </r>
       <r>    2.7257    1.0000 </r>
       <r>    5.0711    1.0000 </r>
       <r>    6.7184    1.0000 </r>
       <r>    8.3818   -0.0000 </r>
       <r>    8.8441   -0.0000 </r>
       <r>   10.4979    0.0000 </r>
       <r>   10.7573    0.0000 </r>
       <r>   12.1333    0.0000 </r>
       <r>   12.2962    0.0000 </r>
       <r>   12.6249    0.0000 </r>
      </set>
      <set comment="kpoint 24">
       <r>   -0.6075    1.0000 </r>
       <r>    0.2012    1.0000 </r>
       <r>    3.3716    1.0000 </r>
       <r>    4.1555    1.0000 </r>
       <r>    7.2928    1.0000 </r>
       <r>    8.0017    0.4115 </r>
       <r>    9.0553   -0.0000 </r>
       <r>    9.8603    0.0000 </r>
       <r>   11.0785    0.0000 </r>
       <r>   11.7875    0.0000 </r>
       <r>   12.8098    0.0000 </r>
       <r>   12.8540    0.0000 </r>
      </set>
      <set comment="kpoint 25">
       <r>   -1.9433    1.0000 </r>
       <r>    0.4830    1.0000 </r>
       <r>    6.1721    1.0000 </r>
       <r>    6.1721    1.0000 </r>
       <r>    7.5460    1.0000 </r>
       <r>    7.5460    1.0000 </r>
       <r>    8.4739   -0.0000 </r>
       <r>    8.4739   -0.0000 </r>
       <r>   10.0675    0.0000 </r>
       <r>   10.0675    0.0000 </r>
       <r>   13.0191    0.0000 </r>
       <r>   13.5875    0.0000 </r>
      </set>
      <set comment="kpoint 26">
       <r>   -1.8688    1.0000 </r>
       <r>    0.5562    1.0000 </r>
       <r>    5.2307    1.0000 </r>
       <r>    6.2311    1.0000 </r>
       <r>    7.3741    1.0000 </r>
       <r>    7.8692    1.0010 </r>
       <r>    8.4288   -0.0000 </r>
       <r>    8.6984   -0.0000 </r>
       <r>   10.1699    0.0000 </r>
       <r>   11.0491    0.0000 </r>
       <r>   12.5987    0.0000 </r>
       <r>   13.0743    0.0000 </r>
      </set>
      <set comment="kpoint 27">
       <r>   -1.6458    1.0000 </r>
       <r>    0.7754    1.0000 </r>
       <r>    3.9410    1.0000 </r>
       <r>    6.1926    1.0000 </r>
       <r>    6.4872    1.0000 </r>
       <r>    7.9692    0.8933 </r>
       <r>    8.6959   -0.0000 </r>
       <r>    9.9961    0.0000 </r>
       <r>   10.6980    0.0000 </r>
       <r>   11.4000    0.0000 </r>
       <r>   12.6567    0.0000 </r>
       <r>   13.0839    0.0000 </r>
      </set>
      <set comment="kpoint 28">
       <r>   -1.2747    1.0000 </r>
       <r>    1.1401    1.0000 </r>
       <r>    2.7371    1.0000 </r>
       <r>    5.0733    1.0000 </r>
       <r>    6.7563    1.0000 </r>
       <r>    8.3442   -0.0000 </r>
       <r>    9.0192   -0.0000 </r>
       <r>   10.3011    0.0000 </r>
       <r>   10.6036    0.0000 </r>
       <r>   12.3048    0.0000 </r>
       <r>   12.3052    0.0000 </r>
       <r>   12.5656    0.0000 </r>
      </set>
      <set comment="kpoint 29">
       <r>   -0.7569    1.0000 </r>
       <r>    1.6490    1.0000 </r>
       <r>    1.6571    1.0000 </r>
       <r>    4.0192    1.0000 </r>
       <r>    7.1989    1.0000 </r>
       <r>    8.8771   -0.0000 </r>
       <r>    9.3273   -0.0000 </r>
       <r>    9.4688    0.0000 </r>
       <r>   11.1562    0.0000 </r>
       <r>   11.2965    0.0000 </r>
       <r>   11.5981    0.0000 </r>
       <r>   13.5473    0.0000 </r>
      </set>
      <set comment="kpoint 30">
       <r>   -0.0940    1.0000 </r>
       <r>    0.7118    1.0000 </r>
       <r>    2.3005    1.0000 </r>
       <r>    3.0919    1.0000 </r>
       <r>    7.7752    1.0000 </r>
       <r>    8.4847   -0.0000 </r>
       <r>    9.5545    0.0000 </r>
       <r>   10.0481    0.0000 </r>
       <r>   10.3661    0.0000 </r>
       <r>   10.7580    0.0000 </r>
       <r>   11.8274    0.0000 </r>
       <r>   12.6264    0.0000 </r>
      </set>
      <set comment="kpoint 31">
       <r>   -1.2771    1.0000 </r>
       <r>   -0.4673    1.0000 </r>
       <r>    6.7599    1.0000 </r>
       <r>    6.7599    1.0000 </r>
       <r>    7.6096    1.0000 </r>
       <r>    7.6096    1.0000 </r>
       <r>    8.0679   -0.0306 </r>
       <r>    8.0679   -0.0306 </r>
       <r>    9.2904   -0.0000 </r>
       <r>    9.2904   -0.0000 </r>
       <r>   14.1655    0.0000 </r>
       <r>   14.8099    0.0000 </r>
      </set>
      <set comment="kpoint 32">
       <r>   -1.2030    1.0000 </r>
       <r>   -0.3937    1.0000 </r>
       <r>    5.8517    1.0000 </r>
       <r>    6.5510    1.0000 </r>
       <r>    6.9296    1.0000 </r>
       <r>    7.6267    1.0000 </r>
       <r>    8.3159   -0.0000 </r>
       <r>    8.8580   -0.0000 </r>
       <r>    9.6596    0.0000 </r>
       <r>   10.1984    0.0000 </r>
       <r>   13.2103    0.0000 </r>
       <r>   13.9524    0.0000 </r>
      </set>
      <set comment="kpoint 33">
       <r>   -0.9810    1.0000 </r>
       <r>   -0.1729    1.0000 </r>
       <r>    4.5763    1.0000 </r>
       <r>    5.3442    1.0000 </r>
       <r>    7.0602    1.0000 </r>
       <r>    7.8107    1.0000 </r>
       <r>    8.5820   -0.0000 </r>
       <r>    9.3203   -0.0000 </r>
       <r>   11.0912    0.0000 </r>
       <r>   11.8061    0.0000 </r>
       <r>   12.0167    0.0000 </r>
       <r>   12.7681    0.0000 </r>
      </set>
      <set comment="kpoint 34">
       <r>   -0.6117    1.0000 </r>
       <r>    0.1943    1.0000 </r>
       <r>    3.3804    1.0000 </r>
       <r>    4.1613    1.0000 </r>
       <r>    7.3726    1.0000 </r>
       <r>    8.1276   -0.0007 </r>
       <r>    8.9747   -0.0000 </r>
       <r>    9.7358    0.0000 </r>
       <r>   10.9204    0.0000 </r>
       <r>   11.6757    0.0000 </r>
       <r>   12.8838    0.0000 </r>
       <r>   12.9644    0.0000 </r>
      </set>
      <set comment="kpoint 35">
       <r>   -0.0963    1.0000 </r>
       <r>    0.7067    1.0000 </r>
       <r>    2.3063    1.0000 </r>
       <r>    3.0949    1.0000 </r>
       <r>    7.8180    1.0000 </r>
       <r>    8.5749   -0.0000 </r>
       <r>    9.5104    0.0000 </r>
       <r>    9.9477    0.0000 </r>
       <r>   10.2739    0.0000 </r>
       <r>   10.7051    0.0000 </r>
       <r>   11.9297    0.0000 </r>
       <r>   12.6809    0.0000 </r>
      </set>
      <set comment="kpoint 36">
       <r>    0.5636    1.0000 </r>
       <r>    1.3628    1.0000 </r>
       <r>    1.3655    1.0000 </r>
       <r>    2.1600    1.0000 </r>
       <r>    8.3955   -0.0000 </r>
       <r>    9.1055   -0.0000 </r>
       <r>    9.1533   -0.0000 </r>
       <r>    9.8635    0.0000 </r>
       <r>   10.1866    0.0000 </r>
       <r>   10.9472    0.0000 </r>
       <r>   10.9967    0.0000 </r>
       <r>   11.7525    0.0000 </r>
      </set>
      <set comment="kpoint 37">
       <r>   -2.9944    1.0000 </r>
       <r>    4.2584    1.0000 </r>
       <r>    4.2584    1.0000 </r>
       <r>    5.1987    1.0000 </r>
       <r>    6.5183    1.0000 </r>
       <r>    7.5108    1.0000 </r>
       <r>    7.5108    1.0000 </r>
       <r>   10.2824    0.0000 </r>
       <r>   12.1260    0.0000 </r>
       <r>   12.1260    0.0000 </r>
       <r>   13.2118    0.0000 </r>
       <r>   13.2118    0.0000 </r>
      </set>
      <set comment="kpoint 38">
       <r>   -2.7786    1.0000 </r>
       <r>    2.9488    1.0000 </r>
       <r>    4.5448    1.0000 </r>
       <r>    5.3967    1.0000 </r>
       <r>    6.7280    1.0000 </r>
       <r>    7.6330    1.0000 </r>
       <r>    9.0805   -0.0000 </r>
       <r>    9.1954   -0.0000 </r>
       <r>   10.8049    0.0000 </r>
       <r>   12.2165    0.0000 </r>
       <r>   12.4178    0.0000 </r>
       <r>   13.4537    0.0000 </r>
      </set>
      <set comment="kpoint 39">
       <r>   -2.4135    1.0000 </r>
       <r>    1.7264    1.0000 </r>
       <r>    4.9682    1.0000 </r>
       <r>    5.7324    1.0000 </r>
       <r>    7.0765    1.0000 </r>
       <r>    7.8945    1.0071 </r>
       <r>    7.9897    0.6126 </r>
       <r>    9.6201    0.0000 </r>
       <r>   11.0503    0.0000 </r>
       <r>   11.1523    0.0000 </r>
       <r>   12.8116    0.0000 </r>
       <r>   12.8487    0.0000 </r>
      </set>
      <set comment="kpoint 40">
       <r>   -1.9004    1.0000 </r>
       <r>    0.6296    1.0000 </r>
       <r>    5.5253    1.0000 </r>
       <r>    6.2061    1.0000 </r>
       <r>    7.0074    1.0000 </r>
       <r>    7.5781    1.0000 </r>
       <r>    8.2849   -0.0000 </r>
       <r>    8.5744   -0.0000 </r>
       <r>   10.1659    0.0000 </r>
       <r>   11.7424    0.0000 </r>
       <r>   13.0341    0.0000 </r>
       <r>   13.4182    0.0000 </r>
      </set>
      <set comment="kpoint 41">
       <r>   -1.2409    1.0000 </r>
       <r>   -0.3315    1.0000 </r>
       <r>    6.1805    1.0000 </r>
       <r>    6.2081    1.0000 </r>
       <r>    6.8180    1.0000 </r>
       <r>    7.6680    1.0000 </r>
       <r>    8.1736   -0.0000 </r>
       <r>    8.7038   -0.0000 </r>
       <r>    9.4047    0.0000 </r>
       <r>   10.8007    0.0000 </r>
       <r>   13.9609    0.0000 </r>
       <r>   14.1248    0.0000 </r>
      </set>
      <set comment="kpoint 42">
       <r>   -1.1520    1.0000 </r>
       <r>   -0.4373    1.0000 </r>
       <r>    5.4854    1.0000 </r>
       <r>    6.9007    1.0000 </r>
       <r>    6.9816    1.0000 </r>
       <r>    7.5686    1.0000 </r>
       <r>    8.4060   -0.0000 </r>
       <r>    8.7936   -0.0000 </r>
       <r>    9.6614    0.0000 </r>
       <r>   10.0959    0.0000 </r>
       <r>   13.2879    0.0000 </r>
       <r>   14.2903    0.0000 </r>
      </set>
      <set comment="kpoint 43">
       <r>   -1.8288    1.0000 </r>
       <r>    0.5075    1.0000 </r>
       <r>    4.9289    1.0000 </r>
       <r>    6.2721    1.0000 </r>
       <r>    7.4292    1.0000 </r>
       <r>    8.3089   -0.0000 </r>
       <r>    8.4582   -0.0000 </r>
       <r>    8.8509   -0.0000 </r>
       <r>   10.2090    0.0000 </r>
       <r>   10.4332    0.0000 </r>
       <r>   12.7502    0.0000 </r>
       <r>   13.1103    0.0000 </r>
      </set>
      <set comment="kpoint 44">
       <r>   -2.3595    1.0000 </r>
       <r>    1.5890    1.0000 </r>
       <r>    4.5128    1.0000 </r>
       <r>    5.7819    1.0000 </r>
       <r>    7.0881    1.0000 </r>
       <r>    8.3983   -0.0000 </r>
       <r>    9.2389   -0.0000 </r>
       <r>    9.4871    0.0000 </r>
       <r>   11.0747    0.0000 </r>
       <r>   11.2359    0.0000 </r>
       <r>   11.3357    0.0000 </r>
       <r>   12.3490    0.0000 </r>
      </set>
      <set comment="kpoint 45">
       <r>   -2.7425    1.0000 </r>
       <r>    2.7981    1.0000 </r>
       <r>    4.2377    1.0000 </r>
       <r>    5.4297    1.0000 </r>
       <r>    6.7471    1.0000 </r>
       <r>    7.9838    0.7062 </r>
       <r>    9.3898    0.0000 </r>
       <r>   10.4270    0.0000 </r>
       <r>   10.6551    0.0000 </r>
       <r>   12.0854    0.0000 </r>
       <r>   12.1093    0.0000 </r>
       <r>   12.2583    0.0000 </r>
      </set>
      <set comment="kpoint 46">
       <r>   -2.9764    1.0000 </r>
       <r>    4.1039    1.0000 </r>
       <r>    4.1039    1.0000 </r>
       <r>    5.2152    1.0000 </r>
       <r>    6.5299    1.0000 </r>
       <r>    7.6892    1.0000 </r>
       <r>    7.6892    1.0000 </r>
       <r>   11.6919    0.0000 </r>
       <r>   11.9600    0.0000 </r>
       <r>   11.9600    0.0000 </r>
       <r>   12.6982    0.0000 </r>
       <r>   13.1164    0.0000 </r>
      </set>
      <set comment="kpoint 47">
       <r>   -2.9197    1.0000 </r>
       <r>    4.2232    1.0000 </r>
       <r>    4.3284    1.0000 </r>
       <r>    4.3284    1.0000 </r>
       <r>    7.5809    1.0000 </r>
       <r>    7.5809    1.0000 </r>
       <r>    7.6229    1.0000 </r>
       <r>   10.3513    0.0000 </r>
       <r>   11.1733    0.0000 </r>
       <r>   11.1733    0.0000 </r>
       <r>   13.7924    0.0000 </r>
       <r>   13.7924    0.0000 </r>
      </set>
      <set comment="kpoint 48">
       <r>   -2.7040    1.0000 </r>
       <r>    3.0201    1.0000 </r>
       <r>    4.4269    1.0000 </r>
       <r>    4.6143    1.0000 </r>
       <r>    7.7017    1.0000 </r>
       <r>    7.8255    1.0000 </r>
       <r>    9.1506   -0.0000 </r>
       <r>    9.2631   -0.0000 </r>
       <r>    9.9179    0.0000 </r>
       <r>   11.4540    0.0000 </r>
       <r>   13.1753    0.0000 </r>
       <r>   13.9654    0.0000 </r>
      </set>
      <set comment="kpoint 49">
       <r>   -2.3391    1.0000 </r>
       <r>    1.7985    1.0000 </r>
       <r>    4.7713    1.0000 </r>
       <r>    5.0364    1.0000 </r>
       <r>    7.9506    1.0139 </r>
       <r>    8.0257    0.0865 </r>
       <r>    8.1980   -0.0000 </r>
       <r>    8.7648   -0.0000 </r>
       <r>   11.1136    0.0000 </r>
       <r>   11.8727    0.0000 </r>
       <r>   12.1359    0.0000 </r>
       <r>   12.8817    0.0000 </r>
      </set>
      <set comment="kpoint 50">
       <r>   -1.8262    1.0000 </r>
       <r>    0.7024    1.0000 </r>
       <r>    5.2555    1.0000 </r>
       <r>    5.5889    1.0000 </r>
       <r>    7.0842    1.0000 </r>
       <r>    7.6678    1.0000 </r>
       <r>    8.4102   -0.0000 </r>
       <r>    8.6430   -0.0000 </r>
       <r>   11.1462    0.0000 </r>
       <r>   11.8184    0.0000 </r>
       <r>   12.4250    0.0000 </r>
       <r>   13.0893    0.0000 </r>
      </set>
      <set comment="kpoint 51">
       <r>   -1.1671    1.0000 </r>
       <r>   -0.2581    1.0000 </r>
       <r>    5.8763    1.0000 </r>
       <r>    6.2230    1.0000 </r>
       <r>    6.2539    1.0000 </r>
       <r>    6.8289    1.0000 </r>
       <r>    8.9149   -0.0000 </r>
       <r>    9.2078   -0.0000 </r>
       <r>   10.2839    0.0000 </r>
       <r>   10.9021    0.0000 </r>
       <r>   13.0140    0.0000 </r>
       <r>   13.1149    0.0000 </r>
      </set>
      <set comment="kpoint 52">
       <r>   -1.0782    1.0000 </r>
       <r>   -0.3639    1.0000 </r>
       <r>    5.5555    1.0000 </r>
       <r>    5.9371    1.0000 </r>
       <r>    6.6364    1.0000 </r>
       <r>    7.1529    1.0000 </r>
       <r>    9.2761   -0.0000 </r>
       <r>    9.5539    0.0000 </r>
       <r>    9.8509    0.0000 </r>
       <r>   10.4640    0.0000 </r>
       <r>   12.3326    0.0000 </r>
       <r>   13.9369    0.0000 </r>
      </set>
      <set comment="kpoint 53">
       <r>   -1.7547    1.0000 </r>
       <r>    0.5804    1.0000 </r>
       <r>    4.9994    1.0000 </r>
       <r>    5.3158    1.0000 </r>
       <r>    7.5146    1.0000 </r>
       <r>    8.0005    0.4302 </r>
       <r>    8.8809   -0.0000 </r>
       <r>    9.1083   -0.0000 </r>
       <r>   10.5135    0.0000 </r>
       <r>   11.0880    0.0000 </r>
       <r>   11.7717    0.0000 </r>
       <r>   13.3656    0.0000 </r>
      </set>
      <set comment="kpoint 54">
       <r>   -2.2851    1.0000 </r>
       <r>    1.6613    1.0000 </r>
       <r>    4.5833    1.0000 </r>
       <r>    4.8189    1.0000 </r>
       <r>    8.1424   -0.0001 </r>
       <r>    8.2870   -0.0000 </r>
       <r>    8.8241   -0.0000 </r>
       <r>    9.3433   -0.0000 </r>
       <r>   11.1222    0.0000 </r>
       <r>   11.4065    0.0000 </r>
       <r>   11.6343    0.0000 </r>
       <r>   12.0330    0.0000 </r>
      </set>
      <set comment="kpoint 55">
       <r>   -2.6679    1.0000 </r>
       <r>    2.8697    1.0000 </r>
       <r>    4.3083    1.0000 </r>
       <r>    4.4593    1.0000 </r>
       <r>    7.8399    1.0000 </r>
       <r>    8.0397   -0.0051 </r>
       <r>    9.4450    0.0000 </r>
       <r>    9.7949    0.0000 </r>
       <r>   10.5027    0.0000 </r>
       <r>   11.1789    0.0000 </r>
       <r>   12.3252    0.0000 </r>
       <r>   13.0626    0.0000 </r>
      </set>
      <set comment="kpoint 56">
       <r>   -2.9016    1.0000 </r>
       <r>    4.1743    1.0000 </r>
       <r>    4.1743    1.0000 </r>
       <r>    4.2395    1.0000 </r>
       <r>    7.6330    1.0000 </r>
       <r>    7.7563    1.0000 </r>
       <r>    7.7563    1.0000 </r>
       <r>   11.0303    0.0000 </r>
       <r>   11.0303    0.0000 </r>
       <r>   11.7637    0.0000 </r>
       <r>   12.7624    0.0000 </r>
       <r>   13.8054    0.0000 </r>
      </set>
      <set comment="kpoint 57">
       <r>   -2.6958    1.0000 </r>
       <r>    2.9179    1.0000 </r>
       <r>    4.5382    1.0000 </r>
       <r>    4.5382    1.0000 </r>
       <r>    7.7894    1.0000 </r>
       <r>    7.7894    1.0000 </r>
       <r>    9.3145   -0.0000 </r>
       <r>    9.9220    0.0000 </r>
       <r>    9.9220    0.0000 </r>
       <r>   10.5580    0.0000 </r>
       <r>   13.0543    0.0000 </r>
       <r>   13.0543    0.0000 </r>
      </set>
      <set comment="kpoint 58">
       <r>   -2.4804    1.0000 </r>
       <r>    3.1246    1.0000 </r>
       <r>    3.2339    1.0000 </r>
       <r>    4.8219    1.0000 </r>
       <r>    7.8961    1.0079 </r>
       <r>    8.6949   -0.0000 </r>
       <r>    9.3381   -0.0000 </r>
       <r>    9.4613    0.0000 </r>
       <r>    9.5328    0.0000 </r>
       <r>   10.2026    0.0000 </r>
       <r>   13.1793    0.0000 </r>
       <r>   14.1712    0.0000 </r>
      </set>
      <set comment="kpoint 59">
       <r>   -2.1161    1.0000 </r>
       <r>    2.0148    1.0000 </r>
       <r>    3.4741    1.0000 </r>
       <r>    5.2379    1.0000 </r>
       <r>    7.4637    1.0000 </r>
       <r>    8.2281   -0.0000 </r>
       <r>    8.2602   -0.0000 </r>
       <r>    9.8470    0.0000 </r>
       <r>   10.6095    0.0000 </r>
       <r>   11.3060    0.0000 </r>
       <r>   13.0937    0.0000 </r>
       <r>   13.4481    0.0000 </r>
      </set>
      <set comment="kpoint 60">
       <r>   -1.6040    1.0000 </r>
       <r>    0.9206    1.0000 </r>
       <r>    3.9654    1.0000 </r>
       <r>    5.7433    1.0000 </r>
       <r>    6.4848    1.0000 </r>
       <r>    7.2950    1.0000 </r>
       <r>    8.6150   -0.0000 </r>
       <r>   10.2810    0.0000 </r>
       <r>   11.1658    0.0000 </r>
       <r>   12.0599    0.0000 </r>
       <r>   12.5883    0.0000 </r>
       <r>   12.7482    0.0000 </r>
      </set>
      <set comment="kpoint 61">
       <r>   -0.9459    1.0000 </r>
       <r>   -0.0384    1.0000 </r>
       <r>    4.5967    1.0000 </r>
       <r>    5.4317    1.0000 </r>
       <r>    6.4629    1.0000 </r>
       <r>    6.5712    1.0000 </r>
       <r>    9.1544   -0.0000 </r>
       <r>   10.5772    0.0000 </r>
       <r>   11.4032    0.0000 </r>
       <r>   11.7736    0.0000 </r>
       <r>   11.8549    0.0000 </r>
       <r>   11.8878    0.0000 </r>
      </set>
      <set comment="kpoint 62">
       <r>   -0.8572    1.0000 </r>
       <r>   -0.1440    1.0000 </r>
       <r>    4.6726    1.0000 </r>
       <r>    5.3641    1.0000 </r>
       <r>    5.7688    1.0000 </r>
       <r>    7.3693    1.0000 </r>
       <r>    9.8131    0.0000 </r>
       <r>   10.0275    0.0000 </r>
       <r>   11.0896    0.0000 </r>
       <r>   11.1615    0.0000 </r>
       <r>   11.8446    0.0000 </r>
       <r>   12.6773    0.0000 </r>
      </set>
      <set comment="kpoint 63">
       <r>   -1.5326    1.0000 </r>
       <r>    0.7989    1.0000 </r>
       <r>    4.0300    1.0000 </r>
       <r>    5.2105    1.0000 </r>
       <r>    6.2661    1.0000 </r>
       <r>    8.3098   -0.0000 </r>
       <r>    9.3567   -0.0000 </r>
       <r>   10.3160    0.0000 </r>
       <r>   10.5358    0.0000 </r>
       <r>   10.8555    0.0000 </r>
       <r>   12.6583    0.0000 </r>
       <r>   13.5878    0.0000 </r>
      </set>
      <set comment="kpoint 64">
       <r>   -2.0622    1.0000 </r>
       <r>    1.8779    1.0000 </r>
       <r>    3.5237    1.0000 </r>
       <r>    4.7948    1.0000 </r>
       <r>    7.2758    1.0000 </r>
       <r>    8.8136   -0.0000 </r>
       <r>    9.2955   -0.0000 </r>
       <r>   10.0663    0.0000 </r>
       <r>   10.0986    0.0000 </r>
       <r>   11.6243    0.0000 </r>
       <r>   11.6267    0.0000 </r>
       <r>   13.5721    0.0000 </r>
      </set>
      <set comment="kpoint 65">
       <r>   -2.4443    1.0000 </r>
       <r>    3.0842    1.0000 </r>
       <r>    3.1581    1.0000 </r>
       <r>    4.5197    1.0000 </r>
       <r>    8.0861   -0.0147 </r>
       <r>    8.7228   -0.0000 </r>
       <r>    9.4880    0.0000 </r>
       <r>    9.4893    0.0000 </r>
       <r>   10.0989    0.0000 </r>
       <r>   10.7487    0.0000 </r>
       <r>   12.5267    0.0000 </r>
       <r>   13.4901    0.0000 </r>
      </set>
      <set comment="kpoint 66">
       <r>   -2.6777    1.0000 </r>
       <r>    2.9347    1.0000 </r>
       <r>    4.3856    1.0000 </r>
       <r>    4.3856    1.0000 </r>
       <r>    7.9498    1.0167 </r>
       <r>    7.9498    1.0167 </r>
       <r>    9.3174   -0.0000 </r>
       <r>    9.8003    0.0000 </r>
       <r>    9.8003    0.0000 </r>
       <r>   11.9812    0.0000 </r>
       <r>   12.9548    0.0000 </r>
       <r>   13.2118    0.0000 </r>
      </set>
      <set comment="kpoint 67">
       <r>   -2.3233    1.0000 </r>
       <r>    1.7058    1.0000 </r>
       <r>    4.8862    1.0000 </r>
       <r>    4.8862    1.0000 </r>
       <r>    8.1239   -0.0009 </r>
       <r>    8.1239   -0.0009 </r>
       <r>    8.7764   -0.0000 </r>
       <r>    8.7764   -0.0000 </r>
       <r>   10.8965    0.0000 </r>
       <r>   11.1741    0.0000 </r>
       <r>   12.0175    0.0000 </r>
       <r>   12.0175    0.0000 </r>
      </set>
      <set comment="kpoint 68">
       <r>   -2.1084    1.0000 </r>
       <r>    1.9146    1.0000 </r>
       <r>    3.5891    1.0000 </r>
       <r>    5.1636    1.0000 </r>
       <r>    7.4823    1.0000 </r>
       <r>    8.3049   -0.0000 </r>
       <r>    9.0292   -0.0000 </r>
       <r>    9.6998    0.0000 </r>
       <r>    9.8023    0.0000 </r>
       <r>   11.3645    0.0000 </r>
       <r>   12.1553    0.0000 </r>
       <r>   13.4586    0.0000 </r>
      </set>
      <set comment="kpoint 69">
       <r>   -1.7451    1.0000 </r>
       <r>    2.2677    1.0000 </r>
       <r>    2.3744    1.0000 </r>
       <r>    5.5375    1.0000 </r>
       <r>    6.3645    1.0000 </r>
       <r>    8.5602   -0.0000 </r>
       <r>    8.6091   -0.0000 </r>
       <r>    9.4511    0.0000 </r>
       <r>   11.5477    0.0000 </r>
       <r>   11.6654    0.0000 </r>
       <r>   12.3898    0.0000 </r>
       <r>   12.5046    0.0000 </r>
      </set>
      <set comment="kpoint 70">
       <r>   -1.2344    1.0000 </r>
       <r>    1.2834    1.0000 </r>
       <r>    2.7639    1.0000 </r>
       <r>    5.1684    1.0000 </r>
       <r>    6.2344    1.0000 </r>
       <r>    7.6444    1.0000 </r>
       <r>    8.9665   -0.0000 </r>
       <r>   10.0060    0.0000 </r>
       <r>   11.4420    0.0000 </r>
       <r>   11.8741    0.0000 </r>
       <r>   12.6316    0.0000 </r>
       <r>   12.6476    0.0000 </r>
      </set>
      <set comment="kpoint 71">
       <r>   -0.5780    1.0000 </r>
       <r>    0.3271    1.0000 </r>
       <r>    3.4017    1.0000 </r>
       <r>    4.2713    1.0000 </r>
       <r>    6.8131    1.0000 </r>
       <r>    6.8969    1.0000 </r>
       <r>    9.5119    0.0000 </r>
       <r>   10.6230    0.0000 </r>
       <r>   10.6962    0.0000 </r>
       <r>   11.2279    0.0000 </r>
       <r>   12.9220    0.0000 </r>
       <r>   13.2218    0.0000 </r>
      </set>
      <set comment="kpoint 72">
       <r>   -0.4896    1.0000 </r>
       <r>    0.2219    1.0000 </r>
       <r>    3.4838    1.0000 </r>
       <r>    4.1786    1.0000 </r>
       <r>    6.1187    1.0000 </r>
       <r>    7.7187    1.0000 </r>
       <r>    9.9366    0.0000 </r>
       <r>   10.1882    0.0000 </r>
       <r>   10.4209    0.0000 </r>
       <r>   11.5205    0.0000 </r>
       <r>   12.9499    0.0000 </r>
       <r>   13.5960    0.0000 </r>
      </set>
      <set comment="kpoint 73">
       <r>   -1.1632    1.0000 </r>
       <r>    1.1622    1.0000 </r>
       <r>    2.8312    1.0000 </r>
       <r>    5.0901    1.0000 </r>
       <r>    5.5635    1.0000 </r>
       <r>    8.6742   -0.0000 </r>
       <r>    9.3843    0.0000 </r>
       <r>    9.7166    0.0000 </r>
       <r>   10.9745    0.0000 </r>
       <r>   12.3603    0.0000 </r>
       <r>   12.4769    0.0000 </r>
       <r>   13.4087    0.0000 </r>
      </set>
      <set comment="kpoint 74">
       <r>   -1.6914    1.0000 </r>
       <r>    2.2384    1.0000 </r>
       <r>    2.3188    1.0000 </r>
       <r>    5.1466    1.0000 </r>
       <r>    6.1300    1.0000 </r>
       <r>    8.9642   -0.0000 </r>
       <r>    9.1454   -0.0000 </r>
       <r>    9.7499    0.0000 </r>
       <r>   11.6529    0.0000 </r>
       <r>   11.9295    0.0000 </r>
       <r>   12.1159    0.0000 </r>
       <r>   12.9161    0.0000 </r>
      </set>
      <set comment="kpoint 75">
       <r>   -2.0725    1.0000 </r>
       <r>    1.9489    1.0000 </r>
       <r>    3.4410    1.0000 </r>
       <r>    4.8716    1.0000 </r>
       <r>    7.2660    1.0000 </r>
       <r>    8.6596   -0.0000 </r>
       <r>    8.7330   -0.0000 </r>
       <r>   10.1131    0.0000 </r>
       <r>   10.8569    0.0000 </r>
       <r>   11.5694    0.0000 </r>
       <r>   12.4765    0.0000 </r>
       <r>   12.8675    0.0000 </r>
      </set>
      <set comment="kpoint 76">
       <r>   -2.3053    1.0000 </r>
       <r>    1.7231    1.0000 </r>
       <r>    4.7370    1.0000 </r>
       <r>    4.7370    1.0000 </r>
       <r>    8.1535   -0.0000 </r>
       <r>    8.1535   -0.0000 </r>
       <r>    8.7879   -0.0000 </r>
       <r>    8.7879   -0.0000 </r>
       <r>   11.1396    0.0000 </r>
       <r>   12.1830    0.0000 </r>
       <r>   12.1830    0.0000 </r>
       <r>   12.3645    0.0000 </r>
      </set>
      <set comment="kpoint 77">
       <r>   -1.8034    1.0000 </r>
       <r>    0.6205    1.0000 </r>
       <r>    5.3680    1.0000 </r>
       <r>    5.3680    1.0000 </r>
       <r>    7.7179    1.0000 </r>
       <r>    7.7179    1.0000 </r>
       <r>    8.6268   -0.0000 </r>
       <r>    8.6268   -0.0000 </r>
       <r>   11.0484    0.0000 </r>
       <r>   11.0484    0.0000 </r>
       <r>   11.3794    0.0000 </r>
       <r>   13.1499    0.0000 </r>
      </set>
      <set comment="kpoint 78">
       <r>   -1.5894    1.0000 </r>
       <r>    0.8309    1.0000 </r>
       <r>    4.0839    1.0000 </r>
       <r>    5.6069    1.0000 </r>
       <r>    6.5029    1.0000 </r>
       <r>    8.0006    0.4289 </r>
       <r>    8.7739   -0.0000 </r>
       <r>   10.1839    0.0000 </r>
       <r>   10.1882    0.0000 </r>
       <r>   11.2607    0.0000 </r>
       <r>   12.4445    0.0000 </r>
       <r>   12.6298    0.0000 </r>
      </set>
      <set comment="kpoint 79">
       <r>   -1.2274    1.0000 </r>
       <r>    1.1868    1.0000 </r>
       <r>    2.8761    1.0000 </r>
       <r>    5.1734    1.0000 </r>
       <r>    6.1704    1.0000 </r>
       <r>    8.4177   -0.0000 </r>
       <r>    9.0470   -0.0000 </r>
       <r>    9.0953   -0.0000 </r>
       <r>   11.2158    0.0000 </r>
       <r>   11.3692    0.0000 </r>
       <r>   12.3261    0.0000 </r>
       <r>   13.4376    0.0000 </r>
      </set>
      <set comment="kpoint 80">
       <r>   -0.7186    1.0000 </r>
       <r>    1.6871    1.0000 </r>
       <r>    1.7898    1.0000 </r>
       <r>    4.1430    1.0000 </r>
       <r>    6.6913    1.0000 </r>
       <r>    8.1325   -0.0004 </r>
       <r>    8.9727   -0.0000 </r>
       <r>    9.4568    0.0000 </r>
       <r>   10.4163    0.0000 </r>
       <r>   11.6993    0.0000 </r>
       <r>   12.6873    0.0000 </r>
       <r>   14.1954    0.0000 </r>
      </set>
      <set comment="kpoint 81">
[...]
       <r>    0.6431    1.0000 </r>
       <r>    1.9189    1.0000 </r>
       <r>    1.9189    1.0000 </r>
       <r>    2.1489    1.0000 </r>
       <r>    6.1343    1.0000 </r>
       <r>    7.3937    1.0000 </r>
       <r>    7.3937    1.0000 </r>
       <r>    7.5908    1.0000 </r>
       <r>   12.4526    0.0000 </r>
       <r>   13.6769    0.0000 </r>
       <r>   13.6769    0.0000 </r>
       <r>   13.8493    0.0000 </r>
      </set>
      <set comment="kpoint 210">
       <r>    1.0784    1.0000 </r>
       <r>    1.4022    1.0000 </r>
       <r>    1.4022    1.0000 </r>
       <r>    2.7610    1.0000 </r>
       <r>    6.5816    1.0000 </r>
       <r>    6.8677    1.0000 </r>
       <r>    6.8677    1.0000 </r>
       <r>    8.2130   -0.0000 </r>
       <r>   12.9037    0.0000 </r>
       <r>   13.1543    0.0000 </r>
       <r>   13.1543    0.0000 </r>
       <r>   14.4505    0.0000 </r>
      </set>
      <set comment="kpoint 211">
       <r>    1.0072    1.0000 </r>
       <r>    2.2778    1.0000 </r>
       <r>    2.2778    1.0000 </r>
       <r>    2.5095    1.0000 </r>
       <r>    4.9497    1.0000 </r>
       <r>    6.2208    1.0000 </r>
       <r>    6.2208    1.0000 </r>
       <r>    6.4168    1.0000 </r>
       <r>   14.2513    0.0000 </r>
       <r>   15.4265    0.0000 </r>
       <r>   15.4265    0.0000 </r>
       <r>   15.6070    0.0000 </r>
      </set>
      <set comment="kpoint 212">
       <r>    1.4405    1.0000 </r>
       <r>    1.7644    1.0000 </r>
       <r>    1.7644    1.0000 </r>
       <r>    3.1132    1.0000 </r>
       <r>    5.4082    1.0000 </r>
       <r>    5.6887    1.0000 </r>
       <r>    5.6887    1.0000 </r>
       <r>    7.0438    1.0000 </r>
       <r>   14.6883    0.0000 </r>
       <r>   14.9294    0.0000 </r>
       <r>   14.9294    0.0000 </r>
       <r>   16.1638    0.0000 </r>
      </set>
      <set comment="kpoint 213">
       <r>    1.5154    1.0000 </r>
       <r>    2.7755    1.0000 </r>
       <r>    2.7755    1.0000 </r>
       <r>    3.0130    1.0000 </r>
       <r>    3.8875    1.0000 </r>
       <r>    5.1727    1.0000 </r>
       <r>    5.1727    1.0000 </r>
       <r>    5.3638    1.0000 </r>
       <r>   16.1460    0.0000 </r>
       <r>   17.0692    0.0000 </r>
       <r>   17.0719    0.0000 </r>
       <r>   17.1857    0.0000 </r>
      </set>
      <set comment="kpoint 214">
       <r>    1.9452    1.0000 </r>
       <r>    2.2703    1.0000 </r>
       <r>    2.2703    1.0000 </r>
       <r>    3.5743    1.0000 </r>
       <r>    4.3893    1.0000 </r>
       <r>    4.6313    1.0000 </r>
       <r>    4.6313    1.0000 </r>
       <r>    5.9960    1.0000 </r>
       <r>   16.5482    0.0000 </r>
       <r>   16.7666    0.0000 </r>
       <r>   16.7666    0.0000 </r>
       <r>   17.0434    0.0000 </r>
      </set>
      <set comment="kpoint 215">
       <r>    2.1664    1.0000 </r>
       <r>    2.9580    1.0000 </r>
       <r>    3.3873    1.0000 </r>
       <r>    3.3873    1.0000 </r>
       <r>    3.6581    1.0000 </r>
       <r>    4.2842    1.0000 </r>
       <r>    4.2842    1.0000 </r>
       <r>    4.4426    1.0000 </r>
       <r>   17.6005    0.0000 </r>
       <r>   17.6005    0.0000 </r>
       <r>   18.0826    0.0000 </r>
       <r>   18.1540    0.0000 </r>
      </set>
      <set comment="kpoint 216">
       <r>    2.5883    1.0000 </r>
       <r>    2.9181    1.0000 </r>
       <r>    2.9181    1.0000 </r>
       <r>    3.3478    1.0000 </r>
       <r>    3.7061    1.0000 </r>
       <r>    3.7061    1.0000 </r>
       <r>    4.3316    1.0000 </r>
       <r>    5.0836    1.0000 </r>
       <r>   17.6285    0.0000 </r>
       <r>   18.3405    0.0000 </r>
       <r>   18.3819    0.0000 </r>
       <r>   18.4219    0.0000 </r>
      </set>
     </set>
    </set>
   </array>
  </eigenvalues>
  <separator name="orbital magnetization" >
   <v name="MAGDIPOLOUT">      0.00000000      0.00000000      0.00000000</v>
  </separator>
  <dos>
   <i name="efermi">      7.99640133 </i>
   <total>
    <array>
     <dimension dim="1">gridpoints</dimension>
     <dimension dim="2">spin</dimension>
     <field>energy</field>
     <field>total</field>
     <field>integrated</field>
     <set>
      <set comment="spin 1">
       <r>    -4.2134     0.0000     0.0000 </r>
       <r>    -4.1343     0.0000     0.0000 </r>
       <r>    -4.0553     0.0000     0.0000 </r>
       <r>    -3.9763     0.0000     0.0000 </r>
       <r>    -3.8972     0.0000     0.0000 </r>
       <r>    -3.8182     0.0000     0.0000 </r>
       <r>    -3.7391     0.0000     0.0000 </r>
       <r>    -3.6601     0.0000     0.0000 </r>
       <r>    -3.5810    -0.0000    -0.0000 </r>
       <r>    -3.5020    -0.0000    -0.0000 </r>
       <r>    -3.4229    -0.0000    -0.0000 </r>
       <r>    -3.3439    -0.0000    -0.0000 </r>
       <r>    -3.2649    -0.0000    -0.0000 </r>
       <r>    -3.1858    -0.0006    -0.0000 </r>
       <r>    -3.1068     0.0157     0.0012 </r>
       <r>    -3.0277     0.1122     0.0101 </r>
       <r>    -2.9487     0.2319     0.0284 </r>
       <r>    -2.8696     0.1549     0.0406 </r>
       <r>    -2.7906     0.1585     0.0532 </r>
       <r>    -2.7116     0.4938     0.0922 </r>
       <r>    -2.6325     0.3734     0.1217 </r>
       <r>    -2.5535     0.0564     0.1262 </r>
       <r>    -2.4744     0.3644     0.1550 </r>
       <r>    -2.3954     0.5495     0.1984 </r>
       <r>    -2.3163     0.5043     0.2383 </r>
       <r>    -2.2373     0.3240     0.2639 </r>
       <r>    -2.1582     0.3541     0.2919 </r>
       <r>    -2.0792     0.7022     0.3474 </r>
       <r>    -2.0002     0.3723     0.3768 </r>
       <r>    -1.9211     0.1827     0.3913 </r>
       <r>    -1.8421     0.6338     0.4413 </r>
       <r>    -1.7630     0.8509     0.5086 </r>
       <r>    -1.6840     0.4417     0.5435 </r>
       <r>    -1.6049     0.6871     0.5978 </r>
       <r>    -1.5259     0.7441     0.6567 </r>
       <r>    -1.4469     0.3109     0.6812 </r>
       <r>    -1.3678     0.4004     0.7129 </r>
       <r>    -1.2888     0.3577     0.7412 </r>
       <r>    -1.2097     0.9624     0.8172 </r>
       <r>    -1.1307     0.9374     0.8913 </r>
       <r>    -1.0516     0.7038     0.9470 </r>
       <r>    -0.9726     0.6312     0.9968 </r>
       <r>    -0.8935     0.8306     1.0625 </r>
       <r>    -0.8145     0.6115     1.1108 </r>
       <r>    -0.7355     0.4969     1.1501 </r>
       <r>    -0.6564     0.6212     1.1992 </r>
       <r>    -0.5774     0.8217     1.2642 </r>
       <r>    -0.4983     0.8099     1.3282 </r>
       <r>    -0.4193     0.6947     1.3831 </r>
       <r>    -0.3402     1.0441     1.4656 </r>
       <r>    -0.2612     0.5030     1.5054 </r>
       <r>    -0.1821     0.9293     1.5788 </r>
       <r>    -0.1031     0.8529     1.6463 </r>
       <r>    -0.0241     1.0249     1.7273 </r>
       <r>     0.0550     1.0354     1.8091 </r>
       <r>     0.1340     0.6476     1.8603 </r>
       <r>     0.2131     0.8160     1.9248 </r>
       <r>     0.2921     0.8150     1.9892 </r>
       <r>     0.3712     0.6586     2.0413 </r>
       <r>     0.4502     0.8649     2.1096 </r>
       <r>     0.5292     0.5187     2.1506 </r>
       <r>     0.6083     1.1653     2.2427 </r>
       <r>     0.6873     0.9799     2.3202 </r>
       <r>     0.7664     1.4611     2.4357 </r>
       <r>     0.8454     1.1210     2.5243 </r>
       <r>     0.9245     0.8830     2.5941 </r>
       <r>     1.0035     1.0103     2.6739 </r>
       <r>     1.0826     0.6906     2.7285 </r>
       <r>     1.1616     0.8656     2.7970 </r>
       <r>     1.2406     1.1860     2.8907 </r>
       <r>     1.3197     0.6931     2.9455 </r>
       <r>     1.3987     1.0261     3.0266 </r>
       <r>     1.4778     0.7993     3.0898 </r>
       <r>     1.5568     0.9823     3.1674 </r>
       <r>     1.6359     1.0831     3.2530 </r>
       <r>     1.7149     1.5302     3.3740 </r>
       <r>     1.7940     1.1520     3.4651 </r>
       <r>     1.8730     1.0020     3.5443 </r>
       <r>     1.9520     1.2144     3.6402 </r>
       <r>     2.0311     0.9446     3.7149 </r>
       <r>     2.1101     1.0622     3.7989 </r>
       <r>     2.1892     1.1092     3.8865 </r>
       <r>     2.2682     1.0088     3.9663 </r>
       <r>     2.3473     1.8175     4.1099 </r>
       <r>     2.4263     0.8377     4.1762 </r>
       <r>     2.5053     0.9213     4.2490 </r>
       <r>     2.5844     1.0368     4.3309 </r>
       <r>     2.6634     0.6185     4.3798 </r>
       <r>     2.7425     1.5317     4.5009 </r>
       <r>     2.8215     1.3202     4.6053 </r>
       <r>     2.9006     1.0868     4.6912 </r>
       <r>     2.9796     1.0491     4.7741 </r>
       <r>     3.0587     0.9619     4.8501 </r>
       <r>     3.1377     2.3051     5.0323 </r>
       <r>     3.2167     1.0686     5.1168 </r>
       <r>     3.2958     1.4442     5.2309 </r>
       <r>     3.3748     0.9360     5.3049 </r>
       <r>     3.4539     1.2081     5.4004 </r>
       <r>     3.5329     1.5663     5.5242 </r>
       <r>     3.6120     1.4203     5.6365 </r>
       <r>     3.6910     1.0403     5.7187 </r>
       <r>     3.7700     1.2973     5.8213 </r>
       <r>     3.8491     0.8692     5.8900 </r>
       <r>     3.9281     1.2555     5.9892 </r>
       <r>     4.0072     1.0863     6.0751 </r>
       <r>     4.0862     1.2168     6.1713 </r>
       <r>     4.1653     1.4117     6.2828 </r>
       <r>     4.2443     1.4044     6.3939 </r>
       <r>     4.3234     1.9249     6.5460 </r>
       <r>     4.4024     1.4876     6.6636 </r>
       <r>     4.4814     0.9793     6.7410 </r>
       <r>     4.5605     1.7822     6.8819 </r>
       <r>     4.6395     1.7168     7.0176 </r>
       <r>     4.7186     1.1469     7.1082 </r>
       <r>     4.7976     1.5450     7.2304 </r>
       <r>     4.8767     1.0841     7.3160 </r>
       <r>     4.9557     1.5548     7.4389 </r>
       <r>     5.0348     1.1348     7.5286 </r>
       <r>     5.1138     1.5265     7.6493 </r>
       <r>     5.1928     1.3784     7.7583 </r>
       <r>     5.2719     1.8448     7.9041 </r>
       <r>     5.3509     1.3559     8.0113 </r>
       <r>     5.4300     1.7169     8.1470 </r>
       <r>     5.5090     1.2991     8.2496 </r>
       <r>     5.5881     2.4797     8.4457 </r>
       <r>     5.6671     1.2860     8.5473 </r>
       <r>     5.7461     0.9809     8.6248 </r>
       <r>     5.8252     1.2931     8.7271 </r>
       <r>     5.9042     1.2461     8.8255 </r>
       <r>     5.9833     1.4394     8.9393 </r>
       <r>     6.0623     1.1865     9.0331 </r>
       <r>     6.1414     1.2071     9.1285 </r>
       <r>     6.2204     1.8630     9.2758 </r>
       <r>     6.2995     2.0775     9.4400 </r>
       <r>     6.3785     1.0965     9.5267 </r>
       <r>     6.4575     1.2665     9.6268 </r>
       <r>     6.5366     1.4197     9.7390 </r>
       <r>     6.6156     1.3846     9.8484 </r>
       <r>     6.6947     1.2041     9.9436 </r>
       <r>     6.7737     2.4354    10.1361 </r>
       <r>     6.8528     1.6456    10.2662 </r>
       <r>     6.9318     0.9654    10.3425 </r>
       <r>     7.0108     1.1614    10.4343 </r>
       <r>     7.0899     1.5429    10.5562 </r>
       <r>     7.1689     2.0450    10.7179 </r>
       <r>     7.2480     1.1030    10.8051 </r>
       <r>     7.3270     1.2155    10.9012 </r>
       <r>     7.4061     1.4402    11.0150 </r>
       <r>     7.4851     1.6092    11.1422 </r>
       <r>     7.5642     1.6537    11.2729 </r>
       <r>     7.6432     1.6254    11.4014 </r>
       <r>     7.7222     1.9383    11.5546 </r>
       <r>     7.8013     1.7605    11.6938 </r>
       <r>     7.8803     1.3468    11.8002 </r>
       <r>     7.9594     1.5034    11.9190 </r>
       <r>     8.0384     2.1179    12.0865 </r>
       <r>     8.1175     1.6253    12.2149 </r>
       <r>     8.1965     2.1607    12.3857 </r>
       <r>     8.2756     1.0904    12.4719 </r>
       <r>     8.3546     1.6797    12.6047 </r>
       <r>     8.4336     1.8771    12.7531 </r>
       <r>     8.5127     1.1406    12.8432 </r>
       <r>     8.5917     1.2969    12.9457 </r>
       <r>     8.6708     1.5837    13.0709 </r>
       <r>     8.7498     2.2859    13.2516 </r>
       <r>     8.8289     1.4598    13.3670 </r>
       <r>     8.9079     1.7258    13.5034 </r>
       <r>     8.9869     1.4034    13.6143 </r>
       <r>     9.0660     1.5146    13.7340 </r>
       <r>     9.1450     1.4781    13.8509 </r>
       <r>     9.2241     1.6740    13.9832 </r>
       <r>     9.3031     1.7531    14.1218 </r>
       <r>     9.3822     1.8881    14.2710 </r>
       <r>     9.4612     2.4426    14.4641 </r>
       <r>     9.5403     2.1898    14.6372 </r>
       <r>     9.6193     1.5643    14.7608 </r>
       <r>     9.6983     1.5753    14.8853 </r>
       <r>     9.7774     1.5333    15.0065 </r>
       <r>     9.8564     2.0316    15.1671 </r>
       <r>     9.9355     1.3508    15.2739 </r>
       <r>    10.0145     1.5438    15.3959 </r>
       <r>    10.0936     2.0561    15.5584 </r>
       <r>    10.1726     1.5954    15.6845 </r>
       <r>    10.2517     2.6034    15.8903 </r>
       <r>    10.3307     2.0091    16.0491 </r>
       <r>    10.4097     1.4169    16.1611 </r>
       <r>    10.4888     1.6341    16.2903 </r>
       <r>    10.5678     2.0999    16.4563 </r>
       <r>    10.6469     1.7820    16.5971 </r>
       <r>    10.7259     1.5812    16.7221 </r>
       <r>    10.8050     1.1246    16.8110 </r>
       <r>    10.8840     1.7178    16.9468 </r>
       <r>    10.9630     1.4472    17.0612 </r>
       <r>    11.0421     1.2380    17.1591 </r>
       <r>    11.1211     2.9902    17.3954 </r>
       <r>    11.2002     2.4671    17.5904 </r>
       <r>    11.2792     1.8241    17.7346 </r>
       <r>    11.3583     1.7294    17.8713 </r>
       <r>    11.4373     2.6748    18.0827 </r>
       <r>    11.5164     2.2750    18.2626 </r>
       <r>    11.5954     1.8019    18.4050 </r>
       <r>    11.6744     1.9238    18.5570 </r>
       <r>    11.7535     1.5633    18.6806 </r>
       <r>    11.8325     2.1370    18.8495 </r>
       <r>    11.9116     1.7880    18.9909 </r>
       <r>    11.9906     1.7471    19.1290 </r>
       <r>    12.0697     2.1302    19.2973 </r>
       <r>    12.1487     1.9700    19.4531 </r>
       <r>    12.2277     1.4984    19.5715 </r>
       <r>    12.3068     2.0977    19.7373 </r>
       <r>    12.3858     2.8875    19.9655 </r>
       <r>    12.4649     1.8768    20.1139 </r>
       <r>    12.5439     1.4262    20.2266 </r>
       <r>    12.6230     1.6711    20.3587 </r>
       <r>    12.7020     2.8244    20.5820 </r>
       <r>    12.7811     1.7041    20.7167 </r>
       <r>    12.8601     2.1485    20.8865 </r>
       <r>    12.9391     2.0954    21.0521 </r>
       <r>    13.0182     1.7349    21.1893 </r>
       <r>    13.0972     2.1904    21.3624 </r>
       <r>    13.1763     2.0557    21.5249 </r>
       <r>    13.2553     1.9111    21.6760 </r>
       <r>    13.3344     1.1888    21.7699 </r>
       <r>    13.4134     2.0003    21.9280 </r>
       <r>    13.4925     1.6987    22.0623 </r>
       <r>    13.5715     1.1586    22.1539 </r>
       <r>    13.6505     1.2267    22.2508 </r>
       <r>    13.7296     0.9586    22.3266 </r>
       <r>    13.8086     1.2400    22.4246 </r>
       <r>    13.8877     0.6433    22.4755 </r>
       <r>    13.9667     1.4948    22.5936 </r>
       <r>    14.0458     0.8916    22.6641 </r>
       <r>    14.1248     1.2487    22.7628 </r>
       <r>    14.2038     0.6665    22.8155 </r>
       <r>    14.2829     0.6467    22.8666 </r>
       <r>    14.3619     1.0014    22.9458 </r>
       <r>    14.4410     0.8067    23.0095 </r>
       <r>    14.5200     0.3902    23.0404 </r>
       <r>    14.5991     0.6745    23.0937 </r>
       <r>    14.6781     0.5681    23.1386 </r>
       <r>    14.7572     0.4889    23.1772 </r>
       <r>    14.8362     0.4483    23.2127 </r>
       <r>    14.9152     0.6375    23.2631 </r>
       <r>    14.9943     0.7397    23.3215 </r>
       <r>    15.0733     0.5720    23.3667 </r>
       <r>    15.1524     0.6409    23.4174 </r>
       <r>    15.2314     0.5188    23.4584 </r>
       <r>    15.3105     0.4074    23.4906 </r>
       <r>    15.3895     0.1596    23.5032 </r>
       <r>    15.4685     0.3700    23.5325 </r>
       <r>    15.5476     0.0792    23.5387 </r>
       <r>    15.6266     0.3922    23.5697 </r>
       <r>    15.7057     0.3797    23.5998 </r>
       <r>    15.7847     0.6398    23.6503 </r>
       <r>    15.8638     0.1971    23.6659 </r>
       <r>    15.9428     0.2565    23.6862 </r>
       <r>    16.0219     0.1681    23.6995 </r>
       <r>    16.1009     0.1847    23.7141 </r>
       <r>    16.1799     0.3401    23.7410 </r>
       <r>    16.2590     0.1200    23.7504 </r>
       <r>    16.3380     0.2520    23.7704 </r>
       <r>    16.4171     0.1857    23.7850 </r>
       <r>    16.4961     0.0601    23.7898 </r>
       <r>    16.5752     0.2389    23.8087 </r>
       <r>    16.6542     0.3680    23.8378 </r>
       <r>    16.7333     0.1674    23.8510 </r>
       <r>    16.8123     0.1366    23.8618 </r>
       <r>    16.8913     0.0298    23.8641 </r>
       <r>    16.9704     0.2038    23.8802 </r>
       <r>    17.0494     0.2257    23.8981 </r>
       <r>    17.1285     0.1528    23.9102 </r>
       <r>    17.2075     0.0591    23.9148 </r>
       <r>    17.2866     0.0128    23.9158 </r>
       <r>    17.3656     0.1454    23.9273 </r>
       <r>    17.4446     0.0424    23.9307 </r>
       <r>    17.5237     0.1297    23.9409 </r>
       <r>    17.6027     0.2333    23.9594 </r>
       <r>    17.6818     0.1394    23.9704 </r>
       <r>    17.7608    -0.0057    23.9700 </r>
       <r>    17.8399    -0.0000    23.9699 </r>
       <r>    17.9189    -0.0000    23.9699 </r>
       <r>    17.9980    -0.0014    23.9698 </r>
       <r>    18.0770     0.0303    23.9722 </r>
       <r>    18.1560     0.0900    23.9793 </r>
       <r>    18.2351     0.0345    23.9821 </r>
       <r>    18.3141     0.0046    23.9824 </r>
       <r>    18.3932     0.1316    23.9928 </r>
       <r>    18.4722     0.0938    24.0002 </r>
       <r>    18.5513    -0.0030    24.0000 </r>
       <r>    18.6303    -0.0001    24.0000 </r>
       <r>    18.7094    -0.0000    24.0000 </r>
       <r>    18.7884    -0.0000    24.0000 </r>
       <r>    18.8674     0.0000    24.0000 </r>
       <r>    18.9465     0.0000    24.0000 </r>
       <r>    19.0255     0.0000    24.0000 </r>
       <r>    19.1046     0.0000    24.0000 </r>
       <r>    19.1836     0.0000    24.0000 </r>
       <r>    19.2627     0.0000    24.0000 </r>
       <r>    19.3417     0.0000    24.0000 </r>
       <r>    19.4207     0.0000    24.0000 </r>
       <r>    19.4998     0.0000    24.0000 </r>
      </set>
     </set>
    </array>
   </total>
  </dos>
 </calculation>
 <structure name="finalpos" >
  <crystal>
   <varray name="basis" >
    <v>       4.04336400       0.00000000       0.00000000 </v>
    <v>       0.00000000       4.04336400       0.00000000 </v>
    <v>       0.24260200       0.00000000       4.03608000 </v>
   </varray>
   <i name="volume">     65.98503418 </i>
   <varray name="rec_basis" >
    <v>       0.24731882       0.00000000      -0.01486592 </v>
    <v>       0.00000000       0.24731882       0.00000000 </v>
    <v>       0.00000000       0.00000000       0.24776516 </v>
   </varray>
  </crystal>
  <varray name="positions" >
   <v>       0.00000000       0.00000000       0.00000000 </v>
   <v>       0.00000000       0.50000000       0.50000000 </v>
   <v>       0.50000000       0.00000000       0.50000000 </v>
   <v>       0.50000000       0.50000000       0.00000000 </v>
  </varray>
 </structure>
</modeling>
