<?xml version="1.0" encoding="ISO-8859-1"?>
<modeling>
 <generator>
  <i name="program" type="string">vasp </i>
  <i name="version" type="string">5.4.4.18Apr17-6-g9f103f2a35  </i>
  <i name="subversion" type="string">(build Jun 11 2017 21:30:58) complex            parallel </i>
  <i name="platform" type="string">LinuxIFC </i>
  <i name="date" type="string">2022 07 07 </i>
  <i name="time" type="string">18:38:29 </i>
 </generator>
 <incar>
  <i type="string" name="PREC">accurate</i>
  <i type="string" name="ALGO"> Normal</i>
  <i type="logical" name="ADDGRID"> T  </i>
  <i type="int" name="NELM">   100</i>
  <i type="int" name="NELMIN">     4</i>
  <i type="int" name="IBRION">    -1</i>
  <i name="EDIFF">      0.00005000</i>
  <i name="ENCUT">    520.00000000</i>
  <i type="logical" name="LREAL"> F  </i>
  <i type="int" name="ISMEAR">     1</i>
  <i name="SIGMA">      0.05000000</i>
  <i type="logical" name="LWAVE"> F  </i>
  <i type="logical" name="LCHARG"> F  </i>
  <i type="logical" name="LASPH"> T  </i>
  <v type="int" name="KPOINT_BSE">    -1     0     0     0</v>
  <i type="int" name="NELM">   100</i>
  <i type="logical" name="LASPH"> T  </i>
 </incar>
 <structure name="primitive_cell" >
  <crystal>
   <varray name="basis" >
    <v>      -2.03176550       0.00000000       2.02168200 </v>
    <v>      -2.03176550       0.00000000      -2.02168200 </v>
    <v>       2.03176550      -2.02168200       0.00000000 </v>
   </varray>
   <i name="volume">     16.60845622 </i>
   <varray name="rec_basis" >
    <v>      -0.24609139      -0.24731882       0.24731882 </v>
    <v>      -0.24609139      -0.24731882      -0.24731882 </v>
    <v>       0.00000000      -0.49463763       0.00000000 </v>
   </varray>
  </crystal>
  <varray name="positions" >
   <v>       0.00000000       0.00000000       0.00000000 </v>
  </varray>
 </structure>
 <varray name="primitive_index" >
  <v type="int" >        1 </v>
 </varray>
 <kpoints>
  <generation param="Gamma">
   <v type="int" name="divisions">      11       11       11 </v>
   <v name="usershift">      0.00000000       0.00000000       0.00000000 </v>
   <v name="genvec1">      0.09090909       0.00000000       0.00000000 </v>
   <v name="genvec2">      0.00000000       0.09090909       0.00000000 </v>
   <v name="genvec3">      0.00000000       0.00000000       0.09090909 </v>
   <v name="shift">      0.00000000       0.00000000       0.00000000 </v>
  </generation>
  <varray name="kpointlist" >
   <v>       0.00000000       0.00000000       0.00000000 </v>
   <v>       0.09090909       0.00000000       0.00000000 </v>
   <v>       0.18181818       0.00000000       0.00000000 </v>
   <v>       0.27272727       0.00000000       0.00000000 </v>
   <v>       0.36363636       0.00000000       0.00000000 </v>
   <v>       0.45454545       0.00000000       0.00000000 </v>
   <v>       0.00000000       0.09090909       0.00000000 </v>
   <v>       0.09090909       0.09090909       0.00000000 </v>
   <v>       0.18181818       0.09090909       0.00000000 </v>
   <v>       0.27272727       0.09090909       0.00000000 </v>
   <v>       0.36363636       0.09090909       0.00000000 </v>
   <v>       0.45454545       0.09090909       0.00000000 </v>
   <v>       0.00000000       0.18181818       0.00000000 </v>
   <v>       0.09090909       0.18181818       0.00000000 </v>
   <v>       0.18181818       0.18181818       0.00000000 </v>
   <v>       0.27272727       0.18181818       0.00000000 </v>
   <v>       0.36363636       0.18181818       0.00000000 </v>
   <v>       0.45454545       0.18181818       0.00000000 </v>
   <v>       0.00000000       0.27272727       0.00000000 </v>
   <v>       0.09090909       0.27272727       0.00000000 </v>
   <v>       0.18181818       0.27272727       0.00000000 </v>
   <v>       0.27272727       0.27272727       0.00000000 </v>
   <v>       0.36363636       0.27272727       0.00000000 </v>
   <v>       0.45454545       0.27272727       0.00000000 </v>
   <v>       0.00000000       0.36363636       0.00000000 </v>
   <v>       0.09090909       0.36363636       0.00000000 </v>
   <v>       0.18181818       0.36363636       0.00000000 </v>
   <v>       0.27272727       0.36363636       0.00000000 </v>
   <v>       0.36363636       0.36363636       0.00000000 </v>
   <v>       0.45454545       0.36363636       0.00000000 </v>
   <v>       0.00000000       0.45454545       0.00000000 </v>
   <v>       0.09090909       0.45454545       0.00000000 </v>
   <v>       0.18181818       0.45454545       0.00000000 </v>
   <v>       0.27272727       0.45454545       0.00000000 </v>
   <v>       0.36363636       0.45454545       0.00000000 </v>
   <v>       0.45454545       0.45454545       0.00000000 </v>
   <v>       0.00000000       0.09090909       0.09090909 </v>
   <v>       0.09090909       0.09090909       0.09090909 </v>
   <v>       0.18181818       0.09090909       0.09090909 </v>
   <v>       0.27272727       0.09090909       0.09090909 </v>
   <v>       0.36363636       0.09090909       0.09090909 </v>
   <v>       0.45454545       0.09090909       0.09090909 </v>
   <v>       0.00000000       0.18181818       0.09090909 </v>
   <v>       0.09090909       0.18181818       0.09090909 </v>
   <v>       0.18181818       0.18181818       0.09090909 </v>
   <v>       0.27272727       0.18181818       0.09090909 </v>
   <v>       0.36363636       0.18181818       0.09090909 </v>
   <v>       0.45454545       0.18181818       0.09090909 </v>
   <v>       0.00000000       0.27272727       0.09090909 </v>
   <v>       0.09090909       0.27272727       0.09090909 </v>
   <v>       0.18181818       0.27272727       0.09090909 </v>
   <v>       0.27272727       0.27272727       0.09090909 </v>
   <v>       0.36363636       0.27272727       0.09090909 </v>
   <v>       0.45454545       0.27272727       0.09090909 </v>
   <v>       0.00000000       0.36363636       0.09090909 </v>
   <v>       0.09090909       0.36363636       0.09090909 </v>
   <v>       0.18181818       0.36363636       0.09090909 </v>
   <v>       0.27272727       0.36363636       0.09090909 </v>
   <v>       0.36363636       0.36363636       0.09090909 </v>
   <v>       0.45454545       0.36363636       0.09090909 </v>
   <v>       0.00000000       0.45454545       0.09090909 </v>
   <v>       0.09090909       0.45454545       0.09090909 </v>
   <v>       0.18181818       0.45454545       0.09090909 </v>
   <v>       0.27272727       0.45454545       0.09090909 </v>
   <v>       0.36363636       0.45454545       0.09090909 </v>
   <v>       0.45454545       0.45454545       0.09090909 </v>
   <v>       0.00000000       0.18181818       0.18181818 </v>
   <v>       0.09090909       0.18181818       0.18181818 </v>
   <v>       0.18181818       0.18181818       0.18181818 </v>
   <v>       0.27272727       0.18181818       0.18181818 </v>
   <v>       0.36363636       0.18181818       0.18181818 </v>
   <v>       0.45454545       0.18181818       0.18181818 </v>
   <v>       0.00000000       0.27272727       0.18181818 </v>
   <v>       0.09090909       0.27272727       0.18181818 </v>
   <v>       0.18181818       0.27272727       0.18181818 </v>
   <v>       0.27272727       0.27272727       0.18181818 </v>
   <v>       0.36363636       0.27272727       0.18181818 </v>
   <v>       0.45454545       0.27272727       0.18181818 </v>
   <v>       0.00000000       0.36363636       0.18181818 </v>
   <v>       0.09090909       0.36363636       0.18181818 </v>
   <v>       0.18181818       0.36363636       0.18181818 </v>
   <v>       0.27272727       0.36363636       0.18181818 </v>
   <v>       0.36363636       0.36363636       0.18181818 </v>
   <v>       0.45454545       0.36363636       0.18181818 </v>
   <v>       0.00000000       0.45454545       0.18181818 </v>
   <v>       0.09090909       0.45454545       0.18181818 </v>
   <v>       0.18181818       0.45454545       0.18181818 </v>
   <v>       0.27272727       0.45454545       0.18181818 </v>
   <v>       0.36363636       0.45454545       0.18181818 </v>
   <v>       0.45454545       0.45454545       0.18181818 </v>
   <v>       0.00000000       0.27272727       0.27272727 </v>
   <v>       0.09090909       0.27272727       0.27272727 </v>
   <v>       0.18181818       0.27272727       0.27272727 </v>
   <v>       0.27272727       0.27272727       0.27272727 </v>
   <v>       0.36363636       0.27272727       0.27272727 </v>
   <v>       0.45454545       0.27272727       0.27272727 </v>
   <v>       0.00000000       0.36363636       0.27272727 </v>
   <v>       0.09090909       0.36363636       0.27272727 </v>
   <v>       0.18181818       0.36363636       0.27272727 </v>
   <v>       0.27272727       0.36363636       0.27272727 </v>
   <v>       0.36363636       0.36363636       0.27272727 </v>
   <v>       0.45454545       0.36363636       0.27272727 </v>
   <v>       0.00000000       0.45454545       0.27272727 </v>
   <v>       0.09090909       0.45454545       0.27272727 </v>
   <v>       0.18181818       0.45454545       0.27272727 </v>
   <v>       0.27272727       0.45454545       0.27272727 </v>
   <v>       0.36363636       0.45454545       0.27272727 </v>
   <v>       0.45454545       0.45454545       0.27272727 </v>
   <v>       0.00000000       0.36363636       0.36363636 </v>
   <v>       0.09090909       0.36363636       0.36363636 </v>
   <v>       0.18181818       0.36363636       0.36363636 </v>
   <v>       0.27272727       0.36363636       0.36363636 </v>
   <v>       0.36363636       0.36363636       0.36363636 </v>
   <v>       0.45454545       0.36363636       0.36363636 </v>
   <v>       0.00000000       0.45454545       0.36363636 </v>
   <v>       0.09090909       0.45454545       0.36363636 </v>
   <v>       0.18181818       0.45454545       0.36363636 </v>
   <v>       0.27272727       0.45454545       0.36363636 </v>
   <v>       0.36363636       0.45454545       0.36363636 </v>
   <v>       0.45454545       0.45454545       0.36363636 </v>
   <v>       0.00000000       0.45454545       0.45454545 </v>
   <v>       0.09090909       0.45454545       0.45454545 </v>
   <v>       0.18181818       0.45454545       0.45454545 </v>
   <v>       0.27272727       0.45454545       0.45454545 </v>
   <v>       0.36363636       0.45454545       0.45454545 </v>
   <v>       0.45454545       0.45454545       0.45454545 </v>
  </varray>
  <varray name="weights" >
   <v>       0.00075131 </v>
   <v>       0.00150263 </v>
   <v>       0.00150263 </v>
   <v>       0.00150263 </v>
   <v>       0.00150263 </v>
   <v>       0.00150263 </v>
   <v>       0.00300526 </v>
   <v>       0.00601052 </v>
   <v>       0.00601052 </v>
   <v>       0.00601052 </v>
   <v>       0.00601052 </v>
   <v>       0.00601052 </v>
   <v>       0.00300526 </v>
   <v>       0.00601052 </v>
   <v>       0.00601052 </v>
   <v>       0.00601052 </v>
   <v>       0.00601052 </v>
   <v>       0.00601052 </v>
   <v>       0.00300526 </v>
   <v>       0.00601052 </v>
   <v>       0.00601052 </v>
   <v>       0.00601052 </v>
   <v>       0.00601052 </v>
   <v>       0.00601052 </v>
   <v>       0.00300526 </v>
   <v>       0.00601052 </v>
   <v>       0.00601052 </v>
   <v>       0.00601052 </v>
   <v>       0.00601052 </v>
   <v>       0.00601052 </v>
   <v>       0.00300526 </v>
   <v>       0.00601052 </v>
   <v>       0.00601052 </v>
   <v>       0.00601052 </v>
   <v>       0.00601052 </v>
   <v>       0.00601052 </v>
   <v>       0.00300526 </v>
   <v>       0.00601052 </v>
   <v>       0.00601052 </v>
   <v>       0.00601052 </v>
   <v>       0.00601052 </v>
   <v>       0.00601052 </v>
   <v>       0.00601052 </v>
   <v>       0.01202104 </v>
   <v>       0.01202104 </v>
   <v>       0.01202104 </v>
   <v>       0.01202104 </v>
   <v>       0.01202104 </v>
   <v>       0.00601052 </v>
   <v>       0.01202104 </v>
   <v>       0.01202104 </v>
   <v>       0.01202104 </v>
   <v>       0.01202104 </v>
   <v>       0.01202104 </v>
   <v>       0.00601052 </v>
   <v>       0.01202104 </v>
   <v>       0.01202104 </v>
   <v>       0.01202104 </v>
   <v>       0.01202104 </v>
   <v>       0.01202104 </v>
   <v>       0.00601052 </v>
   <v>       0.01202104 </v>
   <v>       0.01202104 </v>
   <v>       0.01202104 </v>
   <v>       0.01202104 </v>
   <v>       0.01202104 </v>
   <v>       0.00300526 </v>
   <v>       0.00601052 </v>
   <v>       0.00601052 </v>
   <v>       0.00601052 </v>
   <v>       0.00601052 </v>
   <v>       0.00601052 </v>
   <v>       0.00601052 </v>
   <v>       0.01202104 </v>
   <v>       0.01202104 </v>
   <v>       0.01202104 </v>
   <v>       0.01202104 </v>
   <v>       0.01202104 </v>
   <v>       0.00601052 </v>
   <v>       0.01202104 </v>
   <v>       0.01202104 </v>
   <v>       0.01202104 </v>
   <v>       0.01202104 </v>
   <v>       0.01202104 </v>
   <v>       0.00601052 </v>
   <v>       0.01202104 </v>
   <v>       0.01202104 </v>
   <v>       0.01202104 </v>
   <v>       0.01202104 </v>
   <v>       0.01202104 </v>
   <v>       0.00300526 </v>
   <v>       0.00601052 </v>
   <v>       0.00601052 </v>
   <v>       0.00601052 </v>
   <v>       0.00601052 </v>
   <v>       0.00601052 </v>
   <v>       0.00601052 </v>
   <v>       0.01202104 </v>
   <v>       0.01202104 </v>
   <v>       0.01202104 </v>
   <v>       0.01202104 </v>
   <v>       0.01202104 </v>
   <v>       0.00601052 </v>
   <v>       0.01202104 </v>
   <v>       0.01202104 </v>
   <v>       0.01202104 </v>
   <v>       0.01202104 </v>
   <v>       0.01202104 </v>
   <v>       0.00300526 </v>
   <v>       0.00601052 </v>
   <v>       0.00601052 </v>
   <v>       0.00601052 </v>
   <v>       0.00601052 </v>
   <v>       0.00601052 </v>
   <v>       0.00601052 </v>
   <v>       0.01202104 </v>
   <v>       0.01202104 </v>
   <v>       0.01202104 </v>
   <v>       0.01202104 </v>
   <v>       0.01202104 </v>
   <v>       0.00300526 </v>
   <v>       0.00601052 </v>
   <v>       0.00601052 </v>
   <v>       0.00601052 </v>
   <v>       0.00601052 </v>
   <v>       0.00601052 </v>
  </varray>
 </kpoints>
 <parameters>
  <separator name="general" >
   <i type="string" name="SYSTEM">unknown system</i>
   <i type="logical" name="LCOMPAT"> F  </i>
  </separator>
  <separator name="electronic" >
   <i type="string" name="PREC">accura</i>
   <i name="ENMAX">    520.00000000</i>
   <i name="ENAUG">    291.05200000</i>
   <i name="EDIFF">      0.00005000</i>
   <i type="int" name="IALGO">    38</i>
   <i type="int" name="IWAVPR">    10</i>
   <i type="int" name="NBANDS">    12</i>
   <i name="NELECT">     12.00000000</i>
   <i type="int" name="TURBO">     0</i>
   <i type="int" name="IRESTART">     0</i>
   <i type="int" name="NREBOOT">     0</i>
   <i type="int" name="NMIN">     0</i>
   <i name="EREF">      0.00000000</i>
   <separator name="electronic smearing" >
    <i type="int" name="ISMEAR">     1</i>
    <i name="SIGMA">      0.05000000</i>
    <i name="KSPACING">      0.50000000</i>
    <i type="logical" name="KGAMMA"> T  </i>
   </separator>
   <separator name="electronic projectors" >
    <i type="logical" name="LREAL"> F  </i>
    <v name="ROPT">      0.00000000</v>
    <i type="int" name="LMAXPAW">  -100</i>
    <i type="int" name="LMAXMIX">     2</i>
    <i type="logical" name="NLSPLINE"> F  </i>
   </separator>
   <separator name="electronic startup" >
    <i type="int" name="ISTART">     0</i>
    <i type="int" name="ICHARG">     2</i>
    <i type="int" name="INIWAV">     1</i>
   </separator>
   <separator name="electronic spin" >
    <i type="int" name="ISPIN">     1</i>
    <i type="logical" name="LNONCOLLINEAR"> F  </i>
    <v name="MAGMOM">      1.00000000      1.00000000      1.00000000      1.00000000</v>
    <i name="NUPDOWN">     -1.00000000</i>
    <i type="logical" name="LSORBIT"> F  </i>
    <v name="SAXIS">      0.00000000      0.00000000      1.00000000</v>
    <i type="logical" name="LSPIRAL"> F  </i>
    <v name="QSPIRAL">      0.00000000      0.00000000      0.00000000</v>
    <i type="logical" name="LZEROZ"> F  </i>
   </separator>
   <separator name="electronic exchange-correlation" >
    <i type="logical" name="LASPH"> T  </i>
    <i type="logical" name="LMETAGGA"> F  </i>
   </separator>
   <separator name="electronic convergence" >
    <i type="int" name="NELM">   100</i>
    <i type="int" name="NELMDL">    -5</i>
    <i type="int" name="NELMIN">     4</i>
    <i name="ENINI">    520.00000000</i>
    <separator name="electronic convergence detail" >
     <i type="logical" name="LDIAG"> T  </i>
     <i type="logical" name="LSUBROT"> F  </i>
     <i name="WEIMIN">      0.00000000</i>
     <i name="EBREAK">      0.00000104</i>
     <i name="DEPER">      0.30000000</i>
     <i type="int" name="NRMM">     4</i>
     <i name="TIME">      0.40000000</i>
    </separator>
   </separator>
   <separator name="electronic mixer" >
    <i name="AMIX">      0.40000000</i>
    <i name="BMIX">      1.00000000</i>
    <i name="AMIN">      0.10000000</i>
    <i name="AMIX_MAG">      1.60000000</i>
    <i name="BMIX_MAG">      1.00000000</i>
    <separator name="electronic mixer details" >
     <i type="int" name="IMIX">     4</i>
     <i type="logical" name="MIXFIRST"> F  </i>
     <i type="int" name="MAXMIX">   -45</i>
     <i name="WC">    100.00000000</i>
     <i type="int" name="INIMIX">     1</i>
     <i type="int" name="MIXPRE">     1</i>
     <i type="int" name="MREMOVE">     5</i>
    </separator>
   </separator>
   <separator name="electronic dipolcorrection" >
    <i type="logical" name="LDIPOL"> F  </i>
    <i type="logical" name="LMONO"> F  </i>
    <i type="int" name="IDIPOL">     0</i>
    <i name="EPSILON">      1.00000000</i>
    <v name="DIPOL">   -100.00000000   -100.00000000   -100.00000000</v>
    <i name="EFIELD">      0.00000000</i>
   </separator>
  </separator>
  <separator name="grids" >
   <i type="int" name="NGX">    30</i>
   <i type="int" name="NGY">    30</i>
   <i type="int" name="NGZ">    30</i>
   <i type="int" name="NGXF">    60</i>
   <i type="int" name="NGYF">    60</i>
   <i type="int" name="NGZF">    60</i>
   <i type="logical" name="ADDGRID"> T  </i>
  </separator>
  <separator name="ionic" >
   <i type="int" name="NSW">     0</i>
   <i type="int" name="IBRION">    -1</i>
   <i type="int" name="MDALGO">     0</i>
   <i type="int" name="ISIF">     2</i>
   <i name="PSTRESS">      0.00000000</i>
   <i name="EDIFFG">      0.00050000</i>
   <i type="int" name="NFREE">     0</i>
   <i name="POTIM">      0.50000000</i>
   <i name="SMASS">     -3.00000000</i>
   <i name="SCALEE">      1.00000000</i>
  </separator>
  <separator name="ionic md" >
   <i name="TEBEG">      0.00010000</i>
   <i name="TEEND">      0.00010000</i>
   <i type="int" name="NBLOCK">     1</i>
   <i type="int" name="KBLOCK">     1</i>
   <i type="int" name="NPACO">   256</i>
   <i name="APACO">     16.00000000</i>
  </separator>
  <separator name="symmetry" >
   <i type="int" name="ISYM">     2</i>
   <i name="SYMPREC">      0.00001000</i>
  </separator>
  <separator name="dos" >
   <i type="int" name="LORBIT">     0</i>
   <v name="RWIGS">     -1.00000000</v>
   <i type="int" name="NEDOS">   301</i>
   <i name="EMIN">     10.00000000</i>
   <i name="EMAX">    -10.00000000</i>
   <i name="EFERMI">      0.00000000</i>
  </separator>
  <separator name="writing" >
   <i type="int" name="NWRITE">     2</i>
   <i type="logical" name="LWAVE"> F  </i>
   <i type="logical" name="LDOWNSAMPLE"> F  </i>
   <i type="logical" name="LCHARG"> F  </i>
   <i type="logical" name="LPARD"> F  </i>
   <i type="logical" name="LVTOT"> F  </i>
   <i type="logical" name="LVHAR"> F  </i>
   <i type="logical" name="LELF"> F  </i>
   <i type="logical" name="LOPTICS"> F  </i>
   <v name="STM">      0.00000000      0.00000000      0.00000000      0.00000000      0.00000000      0.00000000      0.00000000</v>
  </separator>
  <separator name="performance" >
   <i type="int" name="NPAR">     4</i>
   <i type="int" name="NSIM">     4</i>
   <i type="int" name="NBLK">    -1</i>
   <i type="logical" name="LPLANE"> T  </i>
   <i type="logical" name="LSCALAPACK"> T  </i>
   <i type="logical" name="LSCAAWARE"> F  </i>
   <i type="logical" name="LSCALU"> F  </i>
   <i type="logical" name="LASYNC"> F  </i>
   <i type="logical" name="LORBITALREAL"> F  </i>
  </separator>
  <separator name="miscellaneous" >
   <i type="int" name="IDIOT">     3</i>
   <i type="int" name="ISPECIAL">     0</i>
   <i type="logical" name="LMUSIC"> F  </i>
   <v name="POMASS">     26.98100000</v>
   <v name="DARWINR">      0.00000000</v>
   <v name="DARWINV">      1.00000000</v>
   <i type="logical" name="LCORR"> T  </i>
  </separator>
  <i type="logical" name="GGA_COMPAT"> T  </i>
  <i type="logical" name="LBERRY"> F  </i>
  <i type="int" name="ICORELEVEL">     0</i>
  <i type="logical" name="LDAU"> F  </i>
  <i type="int" name="I_CONSTRAINED_M">     0</i>
  <separator name="electronic exchange-correlation" >
   <i type="string" name="GGA">--</i>
   <i type="int" name="VOSKOWN">     0</i>
   <i type="logical" name="LHFCALC"> F  </i>
   <i type="string" name="PRECFOCK"></i>
   <i type="logical" name="LSYMGRAD"> F  </i>
   <i type="logical" name="LHFONE"> F  </i>
   <i type="logical" name="LRHFCALC"> F  </i>
   <i type="logical" name="LTHOMAS"> F  </i>
   <i type="logical" name="LMODELHF"> F  </i>
   <i name="ENCUT4O">     -1.00000000</i>
   <i type="int" name="EXXOEP">     0</i>
   <i type="int" name="FOURORBIT">     0</i>
   <i name="AEXX">      0.00000000</i>
   <i name="HFALPHA">      0.00000000</i>
   <i name="MCALPHA">      0.00000000</i>
   <i name="ALDAX">      1.00000000</i>
   <i name="AGGAX">      1.00000000</i>
   <i name="ALDAC">      1.00000000</i>
   <i name="AGGAC">      1.00000000</i>
   <i type="int" name="NKREDX">     1</i>
   <i type="int" name="NKREDY">     1</i>
   <i type="int" name="NKREDZ">     1</i>
   <i type="logical" name="SHIFTRED"> F  </i>
   <i type="logical" name="ODDONLY"> F  </i>
   <i type="logical" name="EVENONLY"> F  </i>
   <i type="int" name="LMAXFOCK">     0</i>
   <i type="int" name="NMAXFOCKAE">     0</i>
   <i type="logical" name="LFOCKAEDFT"> F  </i>
   <i name="HFSCREEN">      0.00000000</i>
   <i name="HFSCREENC">      0.00000000</i>
   <i type="int" name="NBANDSGWLOW">     0</i>
  </separator>
  <separator name="vdW DFT" >
   <i type="logical" name="LUSE_VDW"> F  </i>
   <i name="Zab_VDW">     -0.84910000</i>
   <i name="PARAM1">      0.12340000</i>
   <i name="PARAM2">      1.00000000</i>
   <i name="PARAM3">      0.00000000</i>
  </separator>
  <separator name="model GW" >
   <i type="int" name="MODEL_GW">     0</i>
   <i name="MODEL_EPS0">      9.96507373</i>
   <i name="MODEL_ALPHA">      1.00000000</i>
  </separator>
  <separator name="linear response parameters" >
   <i type="logical" name="LEPSILON"> F  </i>
   <i type="logical" name="LRPA"> F  </i>
   <i type="logical" name="LNABLA"> F  </i>
   <i type="logical" name="LVEL"> F  </i>
   <i type="int" name="KINTER">     0</i>
   <i name="CSHIFT">      0.10000000</i>
   <i name="OMEGAMAX">     -1.00000000</i>
   <i name="DEG_THRESHOLD">      0.00200000</i>
   <i name="RTIME">     -0.10000000</i>
   <i name="WPLASMAI">      0.00000000</i>
   <v name="DFIELD">      0.00000000      0.00000000      0.00000000</v>
   <v name="WPLASMA">      0.00000000      0.00000000      0.00000000      0.00000000      0.00000000      0.00000000      0.00000000      0.00000000      0.00000000</v>
  </separator>
  <separator name="orbital magnetization" >
   <i type="logical" name="NUCIND"> F  </i>
   <v name="MAGPOS">      0.00000000      0.00000000      0.00000000</v>
   <i type="logical" name="LNICSALL"> T  </i>
   <i type="logical" name="ORBITALMAG"> F  </i>
   <i type="logical" name="LMAGBLOCH"> F  </i>
   <i type="logical" name="LCHIMAG"> F  </i>
   <i type="logical" name="LGAUGE"> T  </i>
   <i type="int" name="MAGATOM">     0</i>
   <v name="MAGDIPOL">      0.00000000      0.00000000      0.00000000</v>
   <v name="AVECCONST">      0.00000000      0.00000000      0.00000000</v>
  </separator>
  <separator name="response functions" >
   <i type="logical" name="LADDER"> F  </i>
   <i type="logical" name="LRPAFORCE"> F  </i>
   <i type="logical" name="LFXC"> F  </i>
   <i type="logical" name="LHARTREE"> T  </i>
   <i type="int" name="IBSE">     0</i>
   <v type="int" name="KPOINT">    -1     0     0     0</v>
   <i type="logical" name="LTCTE"> F  </i>
   <i type="logical" name="LTETE"> F  </i>
   <i type="logical" name="LTRIPLET"> F  </i>
   <i type="logical" name="LFXCEPS"> F  </i>
   <i type="logical" name="LFXHEG"> F  </i>
   <i type="int" name="NATURALO">     2</i>
   <i type="logical" name="L2ORDER"> F  </i>
   <i type="logical" name="LMP2LT"> F  </i>
   <i type="logical" name="LUSEW"> F  </i>
   <i name="ENCUTGW">     -2.00000000</i>
   <i name="ENCUTGWSOFT">     -2.00000000</i>
   <i name="ENCUTLF">     -1.00000000</i>
   <i type="int" name="LMAXMP2">    -1</i>
   <i name="SCISSOR">      0.00000000</i>
   <i type="int" name="NOMEGA">     0</i>
   <i type="int" name="NOMEGAR">     0</i>
   <i type="int" name="NBANDSGW">    -1</i>
   <i type="int" name="NBANDSO">    -1</i>
   <i type="int" name="NBANDSV">    -1</i>
   <i type="int" name="NELM">   100</i>
   <i type="int" name="NELMHF">     1</i>
   <i type="int" name="DIM">     3</i>
   <i type="int" name="ANTIRES">     0</i>
   <i name="OMEGAMAX">    -30.00000000</i>
   <i name="OMEGAMIN">    -30.00000000</i>
   <i name="OMEGATL">   -200.00000000</i>
   <i type="int" name="OMEGAGRID">   140</i>
   <i name="CSHIFT">     -0.10000000</i>
   <i type="logical" name="SELFENERGY"> F  </i>
   <i type="logical" name="LSPECTRAL"> F  </i>
   <i type="logical" name="LSPECTRALGW"> F  </i>
   <i type="logical" name="LSINGLES"> F  </i>
   <i type="logical" name="LFERMIGW"> F  </i>
   <i type="logical" name="ODDONLYGW"> F  </i>
   <i type="logical" name="EVENONLYGW"> F  </i>
   <i type="int" name="NKREDLFX">     1</i>
   <i type="int" name="NKREDLFY">     1</i>
   <i type="int" name="NKREDLFZ">     1</i>
   <i type="int" name="MAXMEM">  2800</i>
   <i type="int" name="TELESCOPE">     0</i>
   <i type="int" name="TAUPAR">     1</i>
   <i type="int" name="OMEGAPAR">    -1</i>
   <i name="LAMBDA">      1.00000000</i>
  </separator>
  <separator name="External order field" >
   <i name="OFIELD_KAPPA">      0.00000000</i>
   <v name="OFIELD_K">      0.00000000      0.00000000      0.00000000</v>
   <i name="OFIELD_Q6_NEAR">      0.00000000</i>
   <i name="OFIELD_Q6_FAR">      0.00000000</i>
   <i name="OFIELD_A">      0.00000000</i>
  </separator>
 </parameters>
 <atominfo>
  <atoms>       4 </atoms>
  <types>       1 </types>
  <array name="atoms" >
   <dimension dim="1">ion</dimension>
   <field type="string">element</field>
   <field type="int">atomtype</field>
   <set>
    <rc><c>Al</c><c>   1</c></rc>
    <rc><c>Al</c><c>   1</c></rc>
    <rc><c>Al</c><c>   1</c></rc>
    <rc><c>Al</c><c>   1</c></rc>
   </set>
  </array>
  <array name="atomtypes" >
   <dimension dim="1">type</dimension>
   <field type="int">atomspertype</field>
   <field type="string">element</field>
   <field>mass</field>
   <field>valence</field>
   <field type="string">pseudopotential</field>
   <set>
    <rc><c>   4</c><c>Al</c><c>     26.98100000</c><c>      3.00000000</c><c>  PAW_PBE Al 04Jan2001                  </c></rc>
   </set>
  </array>
 </atominfo>
 <structure name="initialpos" >
  <crystal>
   <varray name="basis" >
    <v>       4.06353100       0.00000000       0.00000000 </v>
    <v>       0.00000000       4.04336400       0.00000000 </v>
    <v>       0.00000000       0.00000000       4.04336400 </v>
   </varray>
   <i name="volume">     66.43382488 </i>
   <varray name="rec_basis" >
    <v>       0.24609139       0.00000000       0.00000000 </v>
    <v>       0.00000000       0.24731882       0.00000000 </v>
    <v>       0.00000000       0.00000000       0.24731882 </v>
   </varray>
  </crystal>
  <varray name="positions" >
   <v>       0.00000000       0.00000000       0.00000000 </v>
   <v>       0.00000000       0.50000000       0.50000000 </v>
   <v>       0.50000000       0.00000000       0.50000000 </v>
   <v>       0.50000000       0.50000000       0.00000000 </v>
  </varray>
 </structure>
 <calculation>
  <scstep>
   <time name="dav">    0.46    0.48</time>
   <time name="total">    0.55    0.57</time>
   <energy>
    <i name="alphaZ">     -0.80893970 </i>
    <i name="ewald">   -293.42127645 </i>
    <i name="hartreedc">     -0.41554637 </i>
    <i name="XCdc">   -105.00610536 </i>
    <i name="pawpsdc">    264.80062850 </i>
    <i name="pawaedc">   -136.98248303 </i>
    <i name="eentropy">     -0.00031169 </i>
    <i name="bandstr">     65.12134591 </i>
    <i name="atom">    214.15382826 </i>
    <i name="e_fr_energy">      7.44114007 </i>
    <i name="e_wo_entrp">      7.44145176 </i>
    <i name="e_0_energy">      7.44124397 </i>
   </energy>
  </scstep>
  <scstep>
   <time name="dav">    0.52    0.52</time>
   <time name="total">    0.53    0.53</time>
   <energy>
    <i name="e_fr_energy">    -14.36736108 </i>
    <i name="e_wo_entrp">    -14.36748422 </i>
    <i name="e_0_energy">    -14.36740212 </i>
   </energy>
  </scstep>
  <scstep>
   <time name="dav">    0.54    0.54</time>
   <time name="total">    0.54    0.54</time>
   <energy>
    <i name="e_fr_energy">    -15.05992648 </i>
    <i name="e_wo_entrp">    -15.05968799 </i>
    <i name="e_0_energy">    -15.05984698 </i>
   </energy>
  </scstep>
  <scstep>
   <time name="dav">    0.49    0.49</time>
   <time name="total">    0.49    0.49</time>
   <energy>
    <i name="e_fr_energy">    -15.06513601 </i>
    <i name="e_wo_entrp">    -15.06490430 </i>
    <i name="e_0_energy">    -15.06505878 </i>
   </energy>
  </scstep>
  <scstep>
   <time name="dav">    0.54    0.54</time>
   <time name="total">    0.59    0.59</time>
   <energy>
    <i name="e_fr_energy">    -15.06518835 </i>
    <i name="e_wo_entrp">    -15.06495665 </i>
    <i name="e_0_energy">    -15.06511112 </i>
   </energy>
  </scstep>
  <scstep>
   <time name="dav">    0.48    0.48</time>
   <time name="total">    0.62    0.62</time>
   <energy>
    <i name="e_fr_energy">    -15.01395796 </i>
    <i name="e_wo_entrp">    -15.01370416 </i>
    <i name="e_0_energy">    -15.01387336 </i>
   </energy>
  </scstep>
  <scstep>
   <time name="dav">    0.48    0.48</time>
   <time name="total">    0.61    0.61</time>
   <energy>
    <i name="e_fr_energy">    -14.97657048 </i>
    <i name="e_wo_entrp">    -14.97627815 </i>
    <i name="e_0_energy">    -14.97647304 </i>
   </energy>
  </scstep>
  <scstep>
   <time name="dav">    0.54    0.54</time>
   <time name="total">    0.67    0.67</time>
   <energy>
    <i name="e_fr_energy">    -14.97646815 </i>
    <i name="e_wo_entrp">    -14.97617441 </i>
    <i name="e_0_energy">    -14.97637023 </i>
   </energy>
  </scstep>
  <scstep>
   <time name="dav">    0.37    0.37</time>
   <time name="total">    0.46    0.46</time>
   <energy>
    <i name="alphaZ">     -0.80893970 </i>
    <i name="ewald">   -293.42127645 </i>
    <i name="hartreedc">     -0.41838760 </i>
    <i name="XCdc">   -104.57334953 </i>
    <i name="pawpsdc">    556.54760370 </i>
    <i name="pawaedc">   -428.77651670 </i>
    <i name="eentropy">     -0.00029415 </i>
    <i name="bandstr">     42.32087088 </i>
    <i name="atom">    214.15382826 </i>
    <i name="e_fr_energy">    -14.97646129 </i>
    <i name="e_wo_entrp">    -14.97616714 </i>
    <i name="e_0_energy">    -14.97636324 </i>
   </energy>
  </scstep>
  <structure>
   <crystal>
    <varray name="basis" >
     <v>       4.06353100       0.00000000       0.00000000 </v>
     <v>       0.00000000       4.04336400       0.00000000 </v>
     <v>       0.00000000       0.00000000       4.04336400 </v>
    </varray>
    <i name="volume">     66.43382488 </i>
    <varray name="rec_basis" >
     <v>       0.24609139       0.00000000       0.00000000 </v>
     <v>       0.00000000       0.24731882       0.00000000 </v>
     <v>       0.00000000       0.00000000       0.24731882 </v>
    </varray>
   </crystal>
   <varray name="positions" >
    <v>       0.00000000       0.00000000       0.00000000 </v>
    <v>       0.00000000       0.50000000       0.50000000 </v>
    <v>       0.50000000       0.00000000       0.50000000 </v>
    <v>       0.50000000       0.50000000       0.00000000 </v>
   </varray>
  </structure>
  <varray name="forces" >
   <v>       0.00000000       0.00000000      -0.00000000 </v>
   <v>      -0.00000000       0.00000000      -0.00000000 </v>
   <v>       0.00000000      -0.00000000       0.00000000 </v>
   <v>       0.00000000      -0.00000000       0.00000000 </v>
  </varray>
  <varray name="stress" >
   <v>      -9.03113239      -0.00000000      -0.00000000 </v>
   <v>       0.00000000      -2.17415073       0.00000000 </v>
   <v>       0.00000000       0.00000000      -2.17415073 </v>
  </varray>
  <energy>
   <i name="e_fr_energy">    -14.97646129 </i>
   <i name="e_wo_entrp">    -14.97636324 </i>
   <i name="e_0_energy">     -0.00029415 </i>
  </energy>
  <time name="totalsc">    5.78    5.81</time>
  <eigenvalues>
   <array>
    <dimension dim="1">band</dimension>
    <dimension dim="2">kpoint</dimension>
    <dimension dim="3">spin</dimension>
    <field>eigene</field>
    <field>occ</field>
    <set>
     <set comment="spin 1">
      <set comment="kpoint 1">
       <r>   -3.1570    1.0000 </r>
       <r>    4.9773    1.0000 </r>
       <r>    5.0483    1.0000 </r>
       <r>    5.0483    1.0000 </r>
       <r>    6.2644    1.0000 </r>
       <r>    6.3667    1.0000 </r>
       <r>    6.3667    1.0000 </r>
       <r>   13.1701    0.0000 </r>
       <r>   13.1701    0.0000 </r>
       <r>   13.2265    0.0000 </r>
       <r>   13.4491    0.0000 </r>
       <r>   13.4663    0.0000 </r>
      </set>
      <set comment="kpoint 2">
       <r>   -3.0829    1.0000 </r>
       <r>    4.0029    1.0000 </r>
       <r>    5.1161    1.0000 </r>
       <r>    5.1161    1.0000 </r>
       <r>    6.4384    1.0000 </r>
       <r>    6.4384    1.0000 </r>
       <r>    7.3673    1.0000 </r>
       <r>   11.8649    0.0000 </r>
       <r>   11.8649    0.0000 </r>
       <r>   12.9794    0.0000 </r>
       <r>   12.9794    0.0000 </r>
       <r>   13.2996    0.0000 </r>
      </set>
      <set comment="kpoint 3">
       <r>   -2.8608    1.0000 </r>
       <r>    2.7064    1.0000 </r>
       <r>    5.3197    1.0000 </r>
       <r>    5.3197    1.0000 </r>
       <r>    6.6523    1.0000 </r>
       <r>    6.6523    1.0000 </r>
       <r>    9.0493   -0.0000 </r>
       <r>   10.5677    0.0000 </r>
       <r>   10.5677    0.0000 </r>
       <r>   11.9824    0.0000 </r>
       <r>   11.9824    0.0000 </r>
       <r>   13.5185    0.0000 </r>
      </set>
      <set comment="kpoint 4">
       <r>   -2.4916    1.0000 </r>
       <r>    1.5038    1.0000 </r>
       <r>    5.6592    1.0000 </r>
       <r>    5.6592    1.0000 </r>
       <r>    7.0039    1.0000 </r>
       <r>    7.0039    1.0000 </r>
       <r>    9.4063    0.0000 </r>
       <r>    9.4063    0.0000 </r>
       <r>   10.8933    0.0000 </r>
       <r>   10.9316    0.0000 </r>
       <r>   10.9316    0.0000 </r>
       <r>   13.8828    0.0000 </r>
      </set>
      <set comment="kpoint 5">
       <r>   -1.9762    1.0000 </r>
       <r>    0.4274    1.0000 </r>
       <r>    6.1348    1.0000 </r>
       <r>    6.1348    1.0000 </r>
       <r>    7.4792    1.0000 </r>
       <r>    7.4792    1.0000 </r>
       <r>    8.3825   -0.0000 </r>
       <r>    8.3825   -0.0000 </r>
       <r>    9.9620    0.0000 </r>
       <r>    9.9620    0.0000 </r>
       <r>   12.8655    0.0000 </r>
       <r>   14.3924    0.0000 </r>
      </set>
      <set comment="kpoint 6">
       <r>   -1.3163    1.0000 </r>
       <r>   -0.5142    1.0000 </r>
       <r>    6.7470    1.0000 </r>
       <r>    6.7470    1.0000 </r>
       <r>    7.4961    1.0000 </r>
       <r>    7.4961    1.0000 </r>
       <r>    8.0034   -0.0003 </r>
       <r>    8.0034   -0.0003 </r>
       <r>    9.1849   -0.0000 </r>
       <r>    9.1849   -0.0000 </r>
       <r>   14.9755    0.0000 </r>
       <r>   15.0575    0.0000 </r>
      </set>
      <set comment="kpoint 7">
       <r>   -3.0821    1.0000 </r>
       <r>    4.0703    1.0000 </r>
       <r>    5.0459    1.0000 </r>
       <r>    5.1168    1.0000 </r>
       <r>    6.3369    1.0000 </r>
       <r>    6.4391    1.0000 </r>
       <r>    7.4743    1.0000 </r>
       <r>   11.8654    0.0000 </r>
       <r>   11.9304    0.0000 </r>
       <r>   12.9399    0.0000 </r>
       <r>   13.0464    0.0000 </r>
       <r>   13.2440    0.0000 </r>
      </set>
      <set comment="kpoint 8">
       <r>   -3.0081    1.0000 </r>
       <r>    4.0735    1.0000 </r>
       <r>    4.1401    1.0000 </r>
       <r>    5.1846    1.0000 </r>
       <r>    6.5103    1.0000 </r>
       <r>    7.4375    1.0000 </r>
       <r>    7.5436    1.0000 </r>
       <r>   10.9197    0.0000 </r>
       <r>   11.9341    0.0000 </r>
       <r>   11.9991    0.0000 </r>
       <r>   13.0450    0.0000 </r>
       <r>   13.1112    0.0000 </r>
      </set>
      <set comment="kpoint 9">
       <r>   -2.7862    1.0000 </r>
       <r>    2.7780    1.0000 </r>
       <r>    4.3494    1.0000 </r>
       <r>    5.3882    1.0000 </r>
       <r>    6.7220    1.0000 </r>
       <r>    7.7504    1.0030 </r>
       <r>    9.1171   -0.0000 </r>
       <r>    9.6803    0.0000 </r>
       <r>   10.6367    0.0000 </r>
       <r>   12.0514    0.0000 </r>
       <r>   12.2048    0.0000 </r>
       <r>   12.9441    0.0000 </r>
      </set>
      <set comment="kpoint 10">
       <r>   -2.4171    1.0000 </r>
       <r>    1.5762    1.0000 </r>
       <r>    4.6976    1.0000 </r>
       <r>    5.7278    1.0000 </r>
       <r>    7.0629    1.0000 </r>
       <r>    8.0886   -0.0000 </r>
       <r>    8.5450   -0.0000 </r>
       <r>    9.4753    0.0000 </r>
       <r>   10.9571    0.0000 </r>
       <r>   11.0064    0.0000 </r>
       <r>   11.9185    0.0000 </r>
       <r>   12.5473    0.0000 </r>
      </set>
      <set comment="kpoint 11">
       <r>   -1.9020    1.0000 </r>
       <r>    0.5003    1.0000 </r>
       <r>    5.1837    1.0000 </r>
       <r>    6.2035    1.0000 </r>
       <r>    7.3074    1.0000 </r>
       <r>    7.7640    1.0079 </r>
       <r>    8.4513   -0.0000 </r>
       <r>    8.5313   -0.0000 </r>
       <r>   10.0598    0.0000 </r>
       <r>   10.9466    0.0000 </r>
       <r>   12.9161    0.0000 </r>
       <r>   13.0258    0.0000 </r>
      </set>
      <set comment="kpoint 12">
       <r>   -1.2425    1.0000 </r>
       <r>   -0.4407    1.0000 </r>
       <r>    5.8051    1.0000 </r>
       <r>    6.5541    1.0000 </r>
       <r>    6.8157    1.0000 </r>
       <r>    7.5649    1.0000 </r>
       <r>    8.2270   -0.0000 </r>
       <r>    8.7729   -0.0000 </r>
       <r>    9.5560    0.0000 </r>
       <r>   10.1009    0.0000 </r>
       <r>   13.6392    0.0000 </r>
       <r>   14.3859    0.0000 </r>
      </set>
      <set comment="kpoint 13">
       <r>   -2.8579    1.0000 </r>
       <r>    2.7629    1.0000 </r>
       <r>    5.2516    1.0000 </r>
       <r>    5.3223    1.0000 </r>
       <r>    6.5533    1.0000 </r>
       <r>    6.6551    1.0000 </r>
       <r>    9.1704   -0.0000 </r>
       <r>   10.5552    0.0000 </r>
       <r>   10.6216    0.0000 </r>
       <r>   11.9335    0.0000 </r>
       <r>   12.0378    0.0000 </r>
       <r>   13.4655    0.0000 </r>
      </set>
      <set comment="kpoint 14">
       <r>   -2.7840    1.0000 </r>
       <r>    2.8338    1.0000 </r>
       <r>    4.2850    1.0000 </r>
       <r>    5.3902    1.0000 </r>
       <r>    6.7241    1.0000 </r>
       <r>    7.6467    1.0000 </r>
       <r>    9.2372    0.0000 </r>
       <r>    9.6701    0.0000 </r>
       <r>   10.6900    0.0000 </r>
       <r>   12.1059    0.0000 </r>
       <r>   12.1418    0.0000 </r>
       <r>   12.8956    0.0000 </r>
      </set>
      <set comment="kpoint 15">
       <r>   -2.5624    1.0000 </r>
       <r>    2.9928    1.0000 </r>
       <r>    3.0464    1.0000 </r>
       <r>    5.5939    1.0000 </r>
       <r>    6.9221    1.0000 </r>
       <r>    8.4533   -0.0000 </r>
       <r>    9.3177    0.0000 </r>
       <r>    9.4346    0.0000 </r>
       <r>   10.8438    0.0000 </r>
       <r>   10.8951    0.0000 </r>
       <r>   12.2599    0.0000 </r>
       <r>   12.3113    0.0000 </r>
      </set>
      <set comment="kpoint 16">
       <r>   -2.1939    1.0000 </r>
       <r>    1.7931    1.0000 </r>
       <r>    3.3999    1.0000 </r>
       <r>    5.9336    1.0000 </r>
       <r>    7.0370    1.0000 </r>
       <r>    7.5416    1.0000 </r>
       <r>    9.6822    0.0000 </r>
       <r>    9.7411    0.0000 </r>
       <r>   11.1360    0.0000 </r>
       <r>   11.2369    0.0000 </r>
       <r>   11.2450    0.0000 </r>
       <r>   12.6638    0.0000 </r>
      </set>
      <set comment="kpoint 17">
       <r>   -1.6796    1.0000 </r>
       <r>    0.7189    1.0000 </r>
       <r>    3.8933    1.0000 </r>
       <r>    6.1790    1.0000 </r>
       <r>    6.4095    1.0000 </r>
       <r>    7.8610    0.5556 </r>
       <r>    8.6580   -0.0000 </r>
       <r>    9.8822    0.0000 </r>
       <r>   10.5941    0.0000 </r>
       <r>   11.7149    0.0000 </r>
       <r>   12.5513    0.0000 </r>
       <r>   12.8547    0.0000 </r>
      </set>
      <set comment="kpoint 18">
       <r>   -1.0211    1.0000 </r>
       <r>   -0.2206    1.0000 </r>
       <r>    4.5246    1.0000 </r>
       <r>    5.2903    1.0000 </r>
       <r>    7.0219    1.0000 </r>
       <r>    7.7714    1.0123 </r>
       <r>    8.4721   -0.0000 </r>
       <r>    9.2052   -0.0000 </r>
       <r>   10.9982    0.0000 </r>
       <r>   11.7086    0.0000 </r>
       <r>   12.3288    0.0000 </r>
       <r>   13.0778    0.0000 </r>
      </set>
      <set comment="kpoint 19">
       <r>   -2.4849    1.0000 </r>
       <r>    1.5492    1.0000 </r>
       <r>    5.5948    1.0000 </r>
       <r>    5.6652    1.0000 </r>
       <r>    6.9092    1.0000 </r>
       <r>    7.0099    1.0000 </r>
       <r>    9.3818    0.0000 </r>
       <r>    9.4491    0.0000 </r>
       <r>   10.8729    0.0000 </r>
       <r>   10.9750    0.0000 </r>
       <r>   11.0310    0.0000 </r>
       <r>   13.8522    0.0000 </r>
      </set>
      <set comment="kpoint 20">
       <r>   -2.4112    1.0000 </r>
       <r>    1.6208    1.0000 </r>
       <r>    4.6369    1.0000 </r>
       <r>    5.7331    1.0000 </r>
       <r>    7.0678    1.0000 </r>
       <r>    7.9898   -0.0011 </r>
       <r>    8.5243   -0.0000 </r>
       <r>    9.5174    0.0000 </r>
       <r>   11.0485    0.0000 </r>
       <r>   11.0932    0.0000 </r>
       <r>   11.8562    0.0000 </r>
       <r>   12.4874    0.0000 </r>
      </set>
      <set comment="kpoint 21">
       <r>   -2.1903    1.0000 </r>
       <r>    1.8356    1.0000 </r>
       <r>    3.3500    1.0000 </r>
       <r>    5.9369    1.0000 </r>
       <r>    7.0321    1.0000 </r>
       <r>    7.5391    1.0000 </r>
       <r>    9.6334    0.0000 </r>
       <r>    9.7223    0.0000 </r>
       <r>   11.1889    0.0000 </r>
       <r>   11.2642    0.0000 </r>
       <r>   11.2795    0.0000 </r>
       <r>   12.6214    0.0000 </r>
      </set>
      <set comment="kpoint 22">
       <r>   -1.8227    1.0000 </r>
       <r>    2.1539    1.0000 </r>
       <r>    2.1927    1.0000 </r>
       <r>    6.0388    1.0000 </r>
       <r>    6.2768    1.0000 </r>
       <r>    7.7290    1.0004 </r>
       <r>   10.0270    0.0000 </r>
       <r>   10.0637    0.0000 </r>
       <r>   11.2270    0.0000 </r>
       <r>   11.2629    0.0000 </r>
       <r>   11.8580    0.0000 </r>
       <r>   11.9154    0.0000 </r>
      </set>
      <set comment="kpoint 23">
       <r>   -1.3097    1.0000 </r>
       <r>    1.0827    1.0000 </r>
       <r>    2.6912    1.0000 </r>
       <r>    5.0123    1.0000 </r>
       <r>    6.7530    1.0000 </r>
       <r>    8.2099   -0.0000 </r>
       <r>    9.0025   -0.0000 </r>
       <r>   10.4501    0.0000 </r>
       <r>   10.5417    0.0000 </r>
       <r>   11.9585    0.0000 </r>
       <r>   12.2144    0.0000 </r>
       <r>   12.7917    0.0000 </r>
      </set>
      <set comment="kpoint 24">
       <r>   -0.6529    1.0000 </r>
       <r>    0.1455    1.0000 </r>
       <r>    3.3294    1.0000 </r>
       <r>    4.1047    1.0000 </r>
       <r>    7.3658    1.0000 </r>
       <r>    8.1155   -0.0000 </r>
       <r>    8.8363   -0.0000 </r>
       <r>    9.5909    0.0000 </r>
       <r>   11.1559    0.0000 </r>
       <r>   11.9061    0.0000 </r>
       <r>   12.5894    0.0000 </r>
       <r>   12.7892    0.0000 </r>
      </set>
      <set comment="kpoint 25">
       <r>   -1.9645    1.0000 </r>
       <r>    0.4625    1.0000 </r>
       <r>    6.0755    1.0000 </r>
       <r>    6.1455    1.0000 </r>
       <r>    7.3918    1.0000 </r>
       <r>    7.4885    1.0000 </r>
       <r>    8.3471   -0.0000 </r>
       <r>    8.4152   -0.0000 </r>
       <r>    9.8954    0.0000 </r>
       <r>    9.9929    0.0000 </r>
       <r>   13.0208    0.0000 </r>
       <r>   14.3483    0.0000 </r>
      </set>
      <set comment="kpoint 26">
       <r>   -1.8910    1.0000 </r>
       <r>    0.5347    1.0000 </r>
       <r>    5.1281    1.0000 </r>
       <r>    6.2135    1.0000 </r>
       <r>    7.2902    1.0000 </r>
       <r>    7.7595    1.0058 </r>
       <r>    8.4432   -0.0000 </r>
       <r>    8.4835   -0.0000 </r>
       <r>   10.0858    0.0000 </r>
       <r>   10.8742    0.0000 </r>
       <r>   12.9703    0.0000 </r>
       <r>   13.0656    0.0000 </r>
      </set>
      <set comment="kpoint 27">
       <r>   -1.6708    1.0000 </r>
       <r>    0.7512    1.0000 </r>
       <r>    3.8485    1.0000 </r>
       <r>    6.1583    1.0000 </r>
       <r>    6.4175    1.0000 </r>
       <r>    7.8687    0.4245 </r>
       <r>    8.6881   -0.0000 </r>
       <r>    9.8502    0.0000 </r>
       <r>   10.5478    0.0000 </r>
       <r>   11.6715    0.0000 </r>
       <r>   12.4664    0.0000 </r>
       <r>   12.8760    0.0000 </r>
      </set>
      <set comment="kpoint 28">
       <r>   -1.3046    1.0000 </r>
       <r>    1.1112    1.0000 </r>
       <r>    2.6575    1.0000 </r>
       <r>    5.0021    1.0000 </r>
       <r>    6.7577    1.0000 </r>
       <r>    8.2148   -0.0000 </r>
       <r>    9.0293   -0.0000 </r>
       <r>   10.4724    0.0000 </r>
       <r>   10.5095    0.0000 </r>
       <r>   11.9307    0.0000 </r>
       <r>   12.0938    0.0000 </r>
       <r>   12.7816    0.0000 </r>
      </set>
      <set comment="kpoint 29">
       <r>   -0.7935    1.0000 </r>
       <r>    1.5903    1.0000 </r>
       <r>    1.6138    1.0000 </r>
       <r>    3.9565    1.0000 </r>
       <r>    7.2342    1.0000 </r>
       <r>    8.7069   -0.0000 </r>
       <r>    9.4848    0.0000 </r>
       <r>    9.5069    0.0000 </r>
       <r>   10.9656    0.0000 </r>
       <r>   10.9873    0.0000 </r>
       <r>   11.7589    0.0000 </r>
       <r>   13.2059    0.0000 </r>
      </set>
      <set comment="kpoint 30">
       <r>   -0.1391    1.0000 </r>
       <r>    0.6566    1.0000 </r>
       <r>    2.2573    1.0000 </r>
       <r>    3.0394    1.0000 </r>
       <r>    7.8474    0.7682 </r>
       <r>    8.5975   -0.0000 </r>
       <r>    9.3353    0.0000 </r>
       <r>   10.0922    0.0000 </r>
       <r>   10.1212    0.0000 </r>
       <r>   10.8719    0.0000 </r>
       <r>   11.6092    0.0000 </r>
       <r>   12.3505    0.0000 </r>
      </set>
      <set comment="kpoint 31">
       <r>   -1.2981    1.0000 </r>
       <r>   -0.4881    1.0000 </r>
       <r>    6.6942    1.0000 </r>
       <r>    6.7637    1.0000 </r>
       <r>    7.4513    1.0000 </r>
       <r>    7.5202    1.0000 </r>
       <r>    7.9362   -0.0302 </r>
       <r>    8.0046   -0.0003 </r>
       <r>    9.1242   -0.0000 </r>
       <r>    9.1928   -0.0000 </r>
       <r>   15.0123    0.0000 </r>
       <r>   15.0730    0.0000 </r>
      </set>
      <set comment="kpoint 32">
       <r>   -1.2250    1.0000 </r>
       <r>   -0.4154    1.0000 </r>
       <r>    5.7563    1.0000 </r>
       <r>    6.5138    1.0000 </r>
       <r>    6.8318    1.0000 </r>
       <r>    7.5883    1.0000 </r>
       <r>    8.2396   -0.0000 </r>
       <r>    8.7513   -0.0000 </r>
       <r>    9.5126    0.0000 </r>
       <r>   10.0226    0.0000 </r>
       <r>   13.5894    0.0000 </r>
       <r>   14.3435    0.0000 </r>
      </set>
      <set comment="kpoint 33">
       <r>   -1.0059    1.0000 </r>
       <r>   -0.1975    1.0000 </r>
       <r>    4.4864    1.0000 </r>
       <r>    5.2601    1.0000 </r>
       <r>    7.0360    1.0000 </r>
       <r>    7.7928    1.0306 </r>
       <r>    8.4859   -0.0000 </r>
       <r>    9.2229   -0.0000 </r>
       <r>   10.8996    0.0000 </r>
       <r>   11.6142    0.0000 </r>
       <r>   12.2914    0.0000 </r>
       <r>   13.0476    0.0000 </r>
      </set>
      <set comment="kpoint 34">
       <r>   -0.6413    1.0000 </r>
       <r>    0.1649    1.0000 </r>
       <r>    3.3022    1.0000 </r>
       <r>    4.0854    1.0000 </r>
       <r>    7.3765    1.0000 </r>
       <r>    8.1336   -0.0000 </r>
       <r>    8.8473   -0.0000 </r>
       <r>    9.6087    0.0000 </r>
       <r>   11.1298    0.0000 </r>
       <r>   11.8873    0.0000 </r>
       <r>   12.5637    0.0000 </r>
       <r>   12.6712    0.0000 </r>
      </set>
      <set comment="kpoint 35">
       <r>   -0.1326    1.0000 </r>
       <r>    0.6709    1.0000 </r>
       <r>    2.2403    1.0000 </r>
       <r>    3.0303    1.0000 </r>
       <r>    7.8534    0.6787 </r>
       <r>    8.6109   -0.0000 </r>
       <r>    9.3415    0.0000 </r>
       <r>   10.1051    0.0000 </r>
       <r>   10.1058    0.0000 </r>
       <r>   10.8632    0.0000 </r>
       <r>   11.5930    0.0000 </r>
       <r>   12.3417    0.0000 </r>
      </set>
      <set comment="kpoint 36">
       <r>    0.5189    1.0000 </r>
       <r>    1.3109    1.0000 </r>
       <r>    1.3187    1.0000 </r>
       <r>    2.1063    1.0000 </r>
       <r>    8.4670   -0.0000 </r>
       <r>    9.2175   -0.0000 </r>
       <r>    9.2249   -0.0000 </r>
       <r>    9.9681    0.0000 </r>
       <r>    9.9756    0.0000 </r>
       <r>   10.7218    0.0000 </r>
       <r>   10.7293    0.0000 </r>
       <r>   11.4773    0.0000 </r>
      </set>
      <set comment="kpoint 37">
       <r>   -3.0073    1.0000 </r>
       <r>    4.1408    1.0000 </r>
       <r>    4.1408    1.0000 </r>
       <r>    5.1145    1.0000 </r>
       <r>    6.4089    1.0000 </r>
       <r>    7.5443    1.0000 </r>
       <r>    7.5443    1.0000 </r>
       <r>   10.9838    0.0000 </r>
       <r>   11.9348    0.0000 </r>
       <r>   11.9348    0.0000 </r>
       <r>   13.0054    0.0000 </r>
       <r>   13.0054    0.0000 </r>
      </set>
      <set comment="kpoint 38">
       <r>   -2.9333    1.0000 </r>
       <r>    4.1440    1.0000 </r>
       <r>    4.2106    1.0000 </r>
       <r>    4.2106    1.0000 </r>
       <r>    7.5070    1.0000 </r>
       <r>    7.6129    1.0000 </r>
       <r>    7.6129    1.0000 </r>
       <r>   10.9895    0.0000 </r>
       <r>   10.9895    0.0000 </r>
       <r>   11.0529    0.0000 </r>
       <r>   13.6571    0.0000 </r>
       <r>   13.6627    0.0000 </r>
      </set>
      <set comment="kpoint 39">
       <r>   -2.7115    1.0000 </r>
       <r>    2.8496    1.0000 </r>
       <r>    4.4198    1.0000 </r>
       <r>    4.4198    1.0000 </r>
       <r>    7.8154    1.0225 </r>
       <r>    7.8154    1.0225 </r>
       <r>    9.1827   -0.0000 </r>
       <r>    9.7535    0.0000 </r>
       <r>    9.7535    0.0000 </r>
       <r>   11.2612    0.0000 </r>
       <r>   13.0109    0.0000 </r>
       <r>   13.0109    0.0000 </r>
      </set>
      <set comment="kpoint 40">
       <r>   -2.3427    1.0000 </r>
       <r>    1.6485    1.0000 </r>
       <r>    4.7676    1.0000 </r>
       <r>    4.7676    1.0000 </r>
       <r>    8.1058   -0.0000 </r>
       <r>    8.1058   -0.0000 </r>
       <r>    8.6590   -0.0000 </r>
       <r>    8.6590   -0.0000 </r>
       <r>   11.0004    0.0000 </r>
       <r>   11.6255    0.0000 </r>
       <r>   11.9884    0.0000 </r>
       <r>   11.9884    0.0000 </r>
      </set>
      <set comment="kpoint 41">
       <r>   -1.8278    1.0000 </r>
       <r>    0.5732    1.0000 </r>
       <r>    5.2526    1.0000 </r>
       <r>    5.2526    1.0000 </r>
       <r>    7.5247    1.0000 </r>
       <r>    7.5247    1.0000 </r>
       <r>    8.6886   -0.0000 </r>
       <r>    8.6886   -0.0000 </r>
       <r>   11.0229    0.0000 </r>
       <r>   11.0229    0.0000 </r>
       <r>   12.0478    0.0000 </r>
       <r>   13.0221    0.0000 </r>
      </set>
      <set comment="kpoint 42">
       <r>   -1.1686    1.0000 </r>
       <r>   -0.3673    1.0000 </r>
       <r>    5.8663    1.0000 </r>
       <r>    5.8663    1.0000 </r>
       <r>    6.6554    1.0000 </r>
       <r>    6.6554    1.0000 </r>
       <r>    9.2249   -0.0000 </r>
       <r>    9.2249   -0.0000 </r>
       <r>   10.2185    0.0000 </r>
       <r>   10.2185    0.0000 </r>
       <r>   12.6707    0.0000 </r>
       <r>   13.4166    0.0000 </r>
      </set>
      <set comment="kpoint 43">
       <r>   -2.7832    1.0000 </r>
       <r>    2.8345    1.0000 </r>
       <r>    4.3522    1.0000 </r>
       <r>    5.3203    1.0000 </r>
       <r>    6.6233    1.0000 </r>
       <r>    7.7530    1.0036 </r>
       <r>    9.2379    0.0000 </r>
       <r>    9.7336    0.0000 </r>
       <r>   10.6243    0.0000 </r>
       <r>   12.0025    0.0000 </r>
       <r>   12.1427    0.0000 </r>
       <r>   13.0028    0.0000 </r>
      </set>
      <set comment="kpoint 44">
       <r>   -2.7093    1.0000 </r>
       <r>    2.9054    1.0000 </r>
       <r>    4.3554    1.0000 </r>
       <r>    4.4218    1.0000 </r>
       <r>    7.7127    1.0001 </r>
       <r>    7.8173    1.0175 </r>
       <r>    9.3020    0.0000 </r>
       <r>    9.7434    0.0000 </r>
       <r>    9.8055    0.0000 </r>
       <r>   11.2006    0.0000 </r>
       <r>   12.9625    0.0000 </r>
       <r>   13.0690    0.0000 </r>
      </set>
      <set comment="kpoint 45">
       <r>   -2.4879    1.0000 </r>
       <r>    3.0643    1.0000 </r>
       <r>    3.1178    1.0000 </r>
       <r>    4.6305    1.0000 </r>
       <r>    7.9661   -0.0071 </r>
       <r>    8.5715   -0.0000 </r>
       <r>    9.3566    0.0000 </r>
       <r>    9.4595    0.0000 </r>
       <r>   10.0052    0.0000 </r>
       <r>   10.0413    0.0000 </r>
       <r>   13.2116    0.0000 </r>
       <r>   13.2675    0.0000 </r>
      </set>
      <set comment="kpoint 46">
       <r>   -2.1196    1.0000 </r>
       <r>    1.8653    1.0000 </r>
       <r>    3.4711    1.0000 </r>
       <r>    4.9769    1.0000 </r>
       <r>    7.2892    1.0000 </r>
       <r>    8.4448   -0.0000 </r>
       <r>    8.7624   -0.0000 </r>
       <r>    9.8857    0.0000 </r>
       <r>   10.3068    0.0000 </r>
       <r>   11.2673    0.0000 </r>
       <r>   12.2007    0.0000 </r>
       <r>   13.5266    0.0000 </r>
      </set>
      <set comment="kpoint 47">
       <r>   -1.6056    1.0000 </r>
       <r>    0.7918    1.0000 </r>
       <r>    3.9641    1.0000 </r>
       <r>    5.4527    1.0000 </r>
       <r>    6.2871    1.0000 </r>
       <r>    7.7515    1.0032 </r>
       <r>    8.9068   -0.0000 </r>
       <r>   10.2934    0.0000 </r>
       <r>   10.8038    0.0000 </r>
       <r>   11.2807    0.0000 </r>
       <r>   12.6207    0.0000 </r>
       <r>   13.0493    0.0000 </r>
      </set>
      <set comment="kpoint 48">
       <r>   -0.9474    1.0000 </r>
       <r>   -0.1473    1.0000 </r>
       <r>    4.5941    1.0000 </r>
       <r>    5.3500    1.0000 </r>
       <r>    6.1142    1.0000 </r>
       <r>    6.8615    1.0000 </r>
       <r>    9.5119    0.0000 </r>
       <r>   10.1968    0.0000 </r>
       <r>   11.1125    0.0000 </r>
       <r>   11.4215    0.0000 </r>
       <r>   11.7836    0.0000 </r>
       <r>   12.1704    0.0000 </r>
      </set>
      <set comment="kpoint 49">
       <r>   -2.4105    1.0000 </r>
       <r>    1.6216    1.0000 </r>
       <r>    4.7038    1.0000 </r>
       <r>    5.6634    1.0000 </r>
       <r>    6.9703    1.0000 </r>
       <r>    8.0942   -0.0000 </r>
       <r>    8.5853   -0.0000 </r>
       <r>    9.4508    0.0000 </r>
       <r>   10.9480    0.0000 </r>
       <r>   11.0937    0.0000 </r>
       <r>   11.9632    0.0000 </r>
       <r>   12.4888    0.0000 </r>
      </set>
      <set comment="kpoint 50">
       <r>   -2.3368    1.0000 </r>
       <r>    1.6932    1.0000 </r>
       <r>    4.7070    1.0000 </r>
       <r>    4.7731    1.0000 </r>
       <r>    8.0217   -0.0000 </r>
       <r>    8.1071   -0.0000 </r>
       <r>    8.6416   -0.0000 </r>
       <r>    8.6854   -0.0000 </r>
       <r>   11.1218    0.0000 </r>
       <r>   11.5828    0.0000 </r>
       <r>   11.9262    0.0000 </r>
       <r>   12.0322    0.0000 </r>
      </set>
      <set comment="kpoint 51">
       <r>   -2.1159    1.0000 </r>
       <r>    1.9078    1.0000 </r>
       <r>    3.4213    1.0000 </r>
       <r>    4.9803    1.0000 </r>
       <r>    7.2787    1.0000 </r>
       <r>    8.4477   -0.0000 </r>
       <r>    8.7985   -0.0000 </r>
       <r>    9.7770    0.0000 </r>
       <r>   10.2635    0.0000 </r>
       <r>   11.3966    0.0000 </r>
       <r>   12.2412    0.0000 </r>
       <r>   13.4981    0.0000 </r>
      </set>
      <set comment="kpoint 52">
       <r>   -1.7486    1.0000 </r>
       <r>    2.2260    1.0000 </r>
       <r>    2.2647    1.0000 </r>
       <r>    5.3172    1.0000 </r>
       <r>    6.1478    1.0000 </r>
       <r>    8.7786   -0.0000 </r>
       <r>    9.1262   -0.0000 </r>
       <r>    9.1626   -0.0000 </r>
       <r>   11.5554    0.0000 </r>
       <r>   11.6743    0.0000 </r>
       <r>   12.5826    0.0000 </r>
       <r>   12.6096    0.0000 </r>
      </set>
      <set comment="kpoint 53">
       <r>   -1.2359    1.0000 </r>
       <r>    1.1553    1.0000 </r>
       <r>    2.7630    1.0000 </r>
       <r>    5.0725    1.0000 </r>
       <r>    5.8414    1.0000 </r>
       <r>    8.1035   -0.0000 </r>
       <r>    9.2601    0.0000 </r>
       <r>    9.6476    0.0000 </r>
       <r>   11.4330    0.0000 </r>
       <r>   11.9011    0.0000 </r>
       <r>   12.3195    0.0000 </r>
       <r>   12.9276    0.0000 </r>
      </set>
      <set comment="kpoint 54">
       <r>   -0.5794    1.0000 </r>
       <r>    0.2186    1.0000 </r>
       <r>    3.4007    1.0000 </r>
       <r>    4.1746    1.0000 </r>
       <r>    6.4527    1.0000 </r>
       <r>    7.2104    1.0000 </r>
       <r>    9.8765    0.0000 </r>
       <r>   10.2658    0.0000 </r>
       <r>   10.6161    0.0000 </r>
       <r>   11.0176    0.0000 </r>
       <r>   12.8621    0.0000 </r>
       <r>   13.5628    0.0000 </r>
      </set>
      <set comment="kpoint 55">
       <r>   -1.8903    1.0000 </r>
       <r>    0.5354    1.0000 </r>
       <r>    5.1946    1.0000 </r>
       <r>    6.1442    1.0000 </r>
       <r>    7.2860    1.0000 </r>
       <r>    7.7289    1.0004 </r>
       <r>    8.4160   -0.0000 </r>
       <r>    8.5376   -0.0000 </r>
       <r>    9.9961    0.0000 </r>
       <r>   10.9797    0.0000 </r>
       <r>   12.9724    0.0000 </r>
       <r>   13.0649    0.0000 </r>
      </set>
      <set comment="kpoint 56">
       <r>   -1.8168    1.0000 </r>
       <r>    0.6076    1.0000 </r>
       <r>    5.1973    1.0000 </r>
       <r>    5.2628    1.0000 </r>
       <r>    7.4939    1.0000 </r>
       <r>    7.5537    1.0000 </r>
       <r>    8.5984   -0.0000 </r>
       <r>    8.6970   -0.0000 </r>
       <r>   10.9512    0.0000 </r>
       <r>   11.0545    0.0000 </r>
       <r>   11.9975    0.0000 </r>
       <r>   13.1732    0.0000 </r>
      </set>
      <set comment="kpoint 57">
       <r>   -1.5968    1.0000 </r>
       <r>    0.8239    1.0000 </r>
       <r>    3.9194    1.0000 </r>
       <r>    5.4603    1.0000 </r>
       <r>    6.2666    1.0000 </r>
       <r>    7.7814    1.0205 </r>
       <r>    8.9147   -0.0000 </r>
       <r>   10.1959    0.0000 </r>
       <r>   10.7614    0.0000 </r>
       <r>   11.3004    0.0000 </r>
       <r>   12.5360    0.0000 </r>
       <r>   13.0286    0.0000 </r>
      </set>
      <set comment="kpoint 58">
       <r>   -1.2308    1.0000 </r>
       <r>    1.1838    1.0000 </r>
       <r>    2.7293    1.0000 </r>
       <r>    5.0626    1.0000 </r>
       <r>    5.8458    1.0000 </r>
       <r>    8.1304   -0.0000 </r>
       <r>    9.2649    0.0000 </r>
       <r>    9.6156    0.0000 </r>
       <r>   11.4419    0.0000 </r>
       <r>   11.8912    0.0000 </r>
       <r>   12.2126    0.0000 </r>
       <r>   12.9105    0.0000 </r>
      </set>
      <set comment="kpoint 59">
       <r>   -0.7199    1.0000 </r>
       <r>    1.6627    1.0000 </r>
       <r>    1.6861    1.0000 </r>
       <r>    4.0266    1.0000 </r>
       <r>    6.3193    1.0000 </r>
       <r>    8.5919   -0.0000 </r>
       <r>    8.6141   -0.0000 </r>
       <r>    9.7504    0.0000 </r>
       <r>   10.8748    0.0000 </r>
       <r>   11.9751    0.0000 </r>
       <r>   11.9961    0.0000 </r>
       <r>   14.0726    0.0000 </r>
      </set>
      <set comment="kpoint 60">
       <r>   -0.0658    1.0000 </r>
       <r>    0.7294    1.0000 </r>
       <r>    2.3293    1.0000 </r>
       <r>    3.1108    1.0000 </r>
       <r>    6.9403    1.0000 </r>
       <r>    7.6988    1.0000 </r>
       <r>    9.2335    0.0000 </r>
       <r>    9.9877    0.0000 </r>
       <r>   10.3688    0.0000 </r>
       <r>   11.1143    0.0000 </r>
       <r>   12.6150    0.0000 </r>
       <r>   13.3507    0.0000 </r>
      </set>
      <set comment="kpoint 61">
       <r>   -1.2243    1.0000 </r>
       <r>   -0.4147    1.0000 </r>
       <r>    5.8219    1.0000 </r>
       <r>    6.5770    1.0000 </r>
       <r>    6.7630    1.0000 </r>
       <r>    7.5202    1.0000 </r>
       <r>    8.1481   -0.0000 </r>
       <r>    8.7293   -0.0000 </r>
       <r>    9.5401    0.0000 </r>
       <r>   10.1219    0.0000 </r>
       <r>   13.5924    0.0000 </r>
       <r>   14.3480    0.0000 </r>
      </set>
      <set comment="kpoint 62">
       <r>   -1.1512    1.0000 </r>
       <r>   -0.3420    1.0000 </r>
       <r>    5.8186    1.0000 </r>
       <r>    5.8814    1.0000 </r>
       <r>    6.6158    1.0000 </r>
       <r>    6.6776    1.0000 </r>
       <r>    9.1482   -0.0000 </r>
       <r>    9.2293    0.0000 </r>
       <r>   10.1488    0.0000 </r>
       <r>   10.2304    0.0000 </r>
       <r>   12.6238    0.0000 </r>
       <r>   13.3768    0.0000 </r>
      </set>
      <set comment="kpoint 63">
       <r>   -0.9322    1.0000 </r>
       <r>   -0.1242    1.0000 </r>
       <r>    4.5560    1.0000 </r>
       <r>    5.3207    1.0000 </r>
       <r>    6.1275    1.0000 </r>
       <r>    6.8830    1.0000 </r>
       <r>    9.5249    0.0000 </r>
       <r>   10.2024    0.0000 </r>
       <r>   11.0259    0.0000 </r>
       <r>   11.3848    0.0000 </r>
       <r>   11.6899    0.0000 </r>
       <r>   12.1409    0.0000 </r>
      </set>
      <set comment="kpoint 64">
       <r>   -0.5678    1.0000 </r>
       <r>    0.2381    1.0000 </r>
       <r>    3.3735    1.0000 </r>
       <r>    4.1554    1.0000 </r>
       <r>    6.4635    1.0000 </r>
       <r>    7.2287    1.0000 </r>
       <r>    9.8872    0.0000 </r>
       <r>   10.2398    0.0000 </r>
       <r>   10.6330    0.0000 </r>
       <r>   10.9989    0.0000 </r>
       <r>   12.7451    0.0000 </r>
       <r>   13.4531    0.0000 </r>
      </set>
      <set comment="kpoint 65">
       <r>   -0.0593    1.0000 </r>
       <r>    0.7438    1.0000 </r>
       <r>    2.3124    1.0000 </r>
       <r>    3.1017    1.0000 </r>
       <r>    6.9464    1.0000 </r>
       <r>    7.7124    1.0001 </r>
       <r>    9.2173   -0.0000 </r>
       <r>    9.9790    0.0000 </r>
       <r>   10.3750    0.0000 </r>
       <r>   11.1277    0.0000 </r>
       <r>   12.5987    0.0000 </r>
       <r>   13.3417    0.0000 </r>
      </set>
      <set comment="kpoint 66">
       <r>    0.5919    1.0000 </r>
       <r>    1.3834    1.0000 </r>
       <r>    1.3913    1.0000 </r>
       <r>    2.1784    1.0000 </r>
       <r>    7.5678    1.0000 </r>
       <r>    8.3255   -0.0000 </r>
       <r>    8.3329   -0.0000 </r>
       <r>    9.0891   -0.0000 </r>
       <r>   10.9926    0.0000 </r>
       <r>   11.7367    0.0000 </r>
       <r>   11.7442    0.0000 </r>
       <r>   12.4845    0.0000 </r>
      </set>
      <set comment="kpoint 67">
       <r>   -2.5595    1.0000 </r>
       <r>    3.0492    1.0000 </r>
       <r>    3.0492    1.0000 </r>
       <r>    5.5261    1.0000 </r>
       <r>    6.8263    1.0000 </r>
       <r>    8.5038   -0.0000 </r>
       <r>    9.4370    0.0000 </r>
       <r>    9.4370    0.0000 </r>
       <r>   10.8317    0.0000 </r>
       <r>   10.8317    0.0000 </r>
       <r>   12.2111    0.0000 </r>
       <r>   12.2111    0.0000 </r>
      </set>
      <set comment="kpoint 68">
       <r>   -2.4857    1.0000 </r>
       <r>    3.1199    1.0000 </r>
       <r>    3.1199    1.0000 </r>
       <r>    4.5663    1.0000 </r>
       <r>    7.8803    0.2432 </r>
       <r>    8.6066   -0.0000 </r>
       <r>    9.4598    0.0000 </r>
       <r>    9.4598    0.0000 </r>
       <r>    9.9966    0.0000 </r>
       <r>    9.9966    0.0000 </r>
       <r>   13.1634    0.0000 </r>
       <r>   13.1634    0.0000 </r>
      </set>
      <set comment="kpoint 69">
       <r>   -2.2646    1.0000 </r>
       <r>    3.2785    1.0000 </r>
       <r>    3.3320    1.0000 </r>
       <r>    3.3320    1.0000 </r>
       <r>    8.6576   -0.0000 </r>
       <r>    8.6576   -0.0000 </r>
       <r>    8.7028   -0.0000 </r>
       <r>    9.6624    0.0000 </r>
       <r>    9.7744    0.0000 </r>
       <r>    9.7744    0.0000 </r>
       <r>   13.9527    0.0000 </r>
       <r>   14.2352    0.0000 </r>
      </set>
      <set comment="kpoint 70">
       <r>   -1.8969    1.0000 </r>
       <r>    2.0818    1.0000 </r>
       <r>    3.6845    1.0000 </r>
       <r>    3.6845    1.0000 </r>
       <r>    7.5223    1.0000 </r>
       <r>    7.5223    1.0000 </r>
       <r>    9.0737   -0.0000 </r>
       <r>   10.0988    0.0000 </r>
       <r>   10.0988    0.0000 </r>
       <r>   11.4699    0.0000 </r>
       <r>   12.8256    0.0000 </r>
       <r>   13.7268    0.0000 </r>
      </set>
      <set comment="kpoint 71">
       <r>   -1.3837    1.0000 </r>
       <r>    1.0100    1.0000 </r>
       <r>    4.1756    1.0000 </r>
       <r>    4.1756    1.0000 </r>
       <r>    6.4948    1.0000 </r>
       <r>    6.4948    1.0000 </r>
       <r>    9.5607    0.0000 </r>
       <r>   10.5645    0.0000 </r>
       <r>   10.5645    0.0000 </r>
       <r>   11.8157    0.0000 </r>
       <r>   12.8310    0.0000 </r>
       <r>   12.8310    0.0000 </r>
      </set>
      <set comment="kpoint 72">
       <r>   -0.7265    1.0000 </r>
       <r>    0.0724    1.0000 </r>
       <r>    4.7947    1.0000 </r>
       <r>    4.7947    1.0000 </r>
       <r>    5.6052    1.0000 </r>
       <r>    5.6052    1.0000 </r>
       <r>   10.1801    0.0000 </r>
       <r>   10.9324    0.0000 </r>
       <r>   11.1222    0.0000 </r>
       <r>   11.1222    0.0000 </r>
       <r>   12.0355    0.0000 </r>
       <r>   12.0355    0.0000 </r>
      </set>
      <set comment="kpoint 73">
       <r>   -2.1873    1.0000 </r>
       <r>    1.8384    1.0000 </r>
       <r>    3.4062    1.0000 </r>
       <r>    5.8694    1.0000 </r>
       <r>    7.0115    1.0000 </r>
       <r>    7.5148    1.0000 </r>
       <r>    9.6579    0.0000 </r>
       <r>    9.7440    0.0000 </r>
       <r>   11.1771    0.0000 </r>
       <r>   11.1890    0.0000 </r>
       <r>   11.2647    0.0000 </r>
       <r>   12.5741    0.0000 </r>
      </set>
      <set comment="kpoint 74">
       <r>   -2.1137    1.0000 </r>
       <r>    1.9099    1.0000 </r>
       <r>    3.4767    1.0000 </r>
       <r>    4.9165    1.0000 </r>
       <r>    7.3265    1.0000 </r>
       <r>    8.3495   -0.0000 </r>
       <r>    8.7415   -0.0000 </r>
       <r>    9.8901    0.0000 </r>
       <r>   10.2534    0.0000 </r>
       <r>   11.3982    0.0000 </r>
       <r>   12.1390    0.0000 </r>
       <r>   13.5017    0.0000 </r>
      </set>
      <set comment="kpoint 75">
       <r>   -1.8932    1.0000 </r>
       <r>    2.1242    1.0000 </r>
       <r>    3.6348    1.0000 </r>
       <r>    3.6880    1.0000 </r>
       <r>    7.5114    1.0000 </r>
       <r>    7.5622    1.0000 </r>
       <r>    9.0266   -0.0000 </r>
       <r>    9.9852    0.0000 </r>
       <r>   10.1021    0.0000 </r>
       <r>   11.6036    0.0000 </r>
       <r>   12.8150    0.0000 </r>
       <r>   13.6585    0.0000 </r>
      </set>
      <set comment="kpoint 76">
       <r>   -1.5265    1.0000 </r>
       <r>    2.4419    1.0000 </r>
       <r>    2.4806    1.0000 </r>
       <r>    4.0385    1.0000 </r>
       <r>    6.3556    1.0000 </r>
       <r>    7.8770    0.2923 </r>
       <r>    7.9139   -0.0245 </r>
       <r>   10.4459    0.0000 </r>
       <r>   11.6812    0.0000 </r>
       <r>   11.8044    0.0000 </r>
       <r>   11.9344    0.0000 </r>
       <r>   14.0703    0.0000 </r>
      </set>
      <set comment="kpoint 77">
       <r>   -1.0145    1.0000 </r>
       <r>    1.3730    1.0000 </r>
       <r>    2.9779    1.0000 </r>
       <r>    4.5186    1.0000 </r>
       <r>    5.3277    1.0000 </r>
       <r>    6.8459    1.0000 </r>
       <r>    8.4000   -0.0000 </r>
       <r>   10.6655    0.0000 </r>
       <r>   10.9221    0.0000 </r>
       <r>   12.3597    0.0000 </r>
       <r>   13.2071    0.0000 </r>
       <r>   13.7361    0.0000 </r>
      </set>
      <set comment="kpoint 78">
       <r>   -0.3591    1.0000 </r>
       <r>    0.4378    1.0000 </r>
       <r>    3.6136    1.0000 </r>
       <r>    4.3770    1.0000 </r>
       <r>    5.1899    1.0000 </r>
       <r>    5.9457    1.0000 </r>
       <r>    9.0215   -0.0000 </r>
       <r>    9.7774    0.0000 </r>
       <r>   11.5240    0.0000 </r>
       <r>   12.2163    0.0000 </r>
       <r>   13.1026    0.0000 </r>
       <r>   13.7687    0.0000 </r>
      </set>
      <set comment="kpoint 79">
       <r>   -1.6679    1.0000 </r>
       <r>    0.7540    1.0000 </r>
       <r>    3.9044    1.0000 </r>
       <r>    6.2100    1.0000 </r>
       <r>    6.3504    1.0000 </r>
       <r>    7.7728    1.0133 </r>
       <r>    8.6229   -0.0000 </r>
       <r>    9.8437    0.0000 </r>
       <r>   10.5750    0.0000 </r>
       <r>   11.6603    0.0000 </r>
       <r>   12.5867    0.0000 </r>
       <r>   12.8386    0.0000 </r>
      </set>
      <set comment="kpoint 80">
       <r>   -1.5946    1.0000 </r>
       <r>    0.8261    1.0000 </r>
       <r>    3.9745    1.0000 </r>
       <r>    5.3989    1.0000 </r>
       <r>    6.3178    1.0000 </r>
       <r>    7.7198    1.0002 </r>
       <r>    8.8121   -0.0000 </r>
       <r>   10.2955    0.0000 </r>
       <r>   10.7513    0.0000 </r>
       <r>   11.2160    0.0000 </r>
       <r>   12.6552    0.0000 </r>
       <r>   13.0191    0.0000 </r>
      </set>
      <set comment="kpoint 81">
       <r>   -1.3749    1.0000 </r>
       <r>    1.0421    1.0000 </r>
       <r>    4.1311    1.0000 </r>
       <r>    4.1838    1.0000 </r>
       <r>    6.4736    1.0000 </r>
       <r>    6.5252    1.0000 </r>
       <r>    9.5179    0.0000 </r>
       <r>   10.4562    0.0000 </r>
       <r>   10.5717    0.0000 </r>
       <r>   11.7951    0.0000 </r>
       <r>   12.7471    0.0000 </r>
       <r>   12.8625    0.0000 </r>
      </set>
      <set comment="kpoint 82">
       <r>   -1.0094    1.0000 </r>
       <r>    1.4015    1.0000 </r>
       <r>    2.9443    1.0000 </r>
       <r>    4.5231    1.0000 </r>
       <r>    5.3179    1.0000 </r>
       <r>    6.8732    1.0000 </r>
       <r>    8.3677   -0.0000 </r>
       <r>   10.6556    0.0000 </r>
       <r>   10.9267    0.0000 </r>
       <r>   12.2439    0.0000 </r>
       <r>   13.2264    0.0000 </r>
       <r>   13.8756    0.0000 </r>
      </set>
      <set comment="kpoint 83">
       <r>   -0.4993    1.0000 </r>
       <r>    1.8797    1.0000 </r>
       <r>    1.9030    1.0000 </r>
       <r>    4.2300    1.0000 </r>
       <r>    5.0542    1.0000 </r>
       <r>    7.3372    1.0000 </r>
       <r>    7.3597    1.0000 </r>
       <r>    9.6348    0.0000 </r>
       <r>   11.4070    0.0000 </r>
       <r>   13.5562    0.0000 </r>
       <r>   13.5687    0.0000 </r>
       <r>   14.3038    0.0000 </r>
      </set>
      <set comment="kpoint 84">
       <r>    0.1538    1.0000 </r>
       <r>    0.9478    1.0000 </r>
       <r>    2.5451    1.0000 </r>
       <r>    3.3245    1.0000 </r>
       <r>    5.6722    1.0000 </r>
       <r>    6.4369    1.0000 </r>
       <r>    7.9834   -0.0019 </r>
       <r>    8.7426   -0.0000 </r>
       <r>   12.0145    0.0000 </r>
       <r>   12.7417    0.0000 </r>
       <r>   14.2092    0.0000 </r>
       <r>   14.9326    0.0000 </r>
      </set>
      <set comment="kpoint 85">
       <r>   -1.0030    1.0000 </r>
       <r>   -0.1946    1.0000 </r>
       <r>    4.5419    1.0000 </r>
       <r>    5.3147    1.0000 </r>
       <r>    6.9694    1.0000 </r>
       <r>    7.7268    1.0004 </r>
       <r>    8.3886   -0.0000 </r>
       <r>    9.1313   -0.0000 </r>
       <r>   11.0124    0.0000 </r>
       <r>   11.7333    0.0000 </r>
       <r>   12.2808    0.0000 </r>
       <r>   13.0379    0.0000 </r>
      </set>
      <set comment="kpoint 86">
       <r>   -0.9300    1.0000 </r>
       <r>   -0.1221    1.0000 </r>
       <r>    4.6106    1.0000 </r>
       <r>    5.3720    1.0000 </r>
       <r>    6.0673    1.0000 </r>
       <r>    6.8207    1.0000 </r>
       <r>    9.4241    0.0000 </r>
       <r>   10.1257    0.0000 </r>
       <r>   11.1185    0.0000 </r>
       <r>   11.3749    0.0000 </r>
       <r>   11.8068    0.0000 </r>
       <r>   12.1312    0.0000 </r>
      </set>
      <set comment="kpoint 87">
       <r>   -0.7113    1.0000 </r>
       <r>    0.0954    1.0000 </r>
       <r>    4.7579    1.0000 </r>
       <r>    4.8080    1.0000 </r>
       <r>    5.5760    1.0000 </r>
       <r>    5.6258    1.0000 </r>
       <r>   10.1433    0.0000 </r>
       <r>   10.9031    0.0000 </r>
       <r>   11.0291    0.0000 </r>
       <r>   11.1254    0.0000 </r>
       <r>   11.9517    0.0000 </r>
       <r>   12.0481    0.0000 </r>
      </set>
      <set comment="kpoint 88">
       <r>   -0.3475    1.0000 </r>
       <r>    0.4572    1.0000 </r>
       <r>    3.5866    1.0000 </r>
       <r>    4.3584    1.0000 </r>
       <r>    5.2003    1.0000 </r>
       <r>    5.9642    1.0000 </r>
       <r>    8.9953   -0.0000 </r>
       <r>    9.7588    0.0000 </r>
       <r>   11.5339    0.0000 </r>
       <r>   12.2223    0.0000 </r>
       <r>   12.9969    0.0000 </r>
       <r>   13.6610    0.0000 </r>
      </set>
      <set comment="kpoint 89">
       <r>    0.1603    1.0000 </r>
       <r>    0.9621    1.0000 </r>
       <r>    2.5282    1.0000 </r>
       <r>    3.3155    1.0000 </r>
       <r>    5.6784    1.0000 </r>
       <r>    6.4506    1.0000 </r>
       <r>    7.9671   -0.0066 </r>
       <r>    8.7339   -0.0000 </r>
       <r>   12.0206    0.0000 </r>
       <r>   12.7546    0.0000 </r>
       <r>   14.1920    0.0000 </r>
       <r>   14.8441    0.0000 </r>
      </set>
      <set comment="kpoint 90">
       <r>    0.8105    1.0000 </r>
       <r>    1.6009    1.0000 </r>
       <r>    1.6087    1.0000 </r>
       <r>    2.3945    1.0000 </r>
       <r>    6.3045    1.0000 </r>
       <r>    7.0686    1.0000 </r>
       <r>    7.0761    1.0000 </r>
       <r>    7.8382    0.8819 </r>
       <r>   12.6290    0.0000 </r>
       <r>   13.3578    0.0000 </r>
       <r>   13.3655    0.0000 </r>
       <r>   14.0916    0.0000 </r>
      </set>
      <set comment="kpoint 91">
       <r>   -1.8161    1.0000 </r>
       <r>    2.1991    1.0000 </r>
       <r>    2.1991    1.0000 </r>
       <r>    6.0795    1.0000 </r>
       <r>    6.2129    1.0000 </r>
       <r>    7.6360    1.0000 </r>
       <r>   10.0030    0.0000 </r>
       <r>   10.0030    0.0000 </r>
       <r>   11.2263    0.0000 </r>
       <r>   11.2263    0.0000 </r>
       <r>   11.8987    0.0000 </r>
       <r>   11.8987    0.0000 </r>
      </set>
      <set comment="kpoint 92">
       <r>   -1.7427    1.0000 </r>
       <r>    2.2704    1.0000 </r>
       <r>    2.2704    1.0000 </r>
       <r>    5.2588    1.0000 </r>
       <r>    6.1883    1.0000 </r>
       <r>    8.6787   -0.0000 </r>
       <r>    9.1050   -0.0000 </r>
       <r>    9.1050   -0.0000 </r>
       <r>   11.6739    0.0000 </r>
       <r>   11.6739    0.0000 </r>
       <r>   12.5262    0.0000 </r>
       <r>   12.5262    0.0000 </r>
      </set>
      <set comment="kpoint 93">
       <r>   -1.5228    1.0000 </r>
       <r>    2.4841    1.0000 </r>
       <r>    2.4841    1.0000 </r>
       <r>    3.9891    1.0000 </r>
       <r>    6.3962    1.0000 </r>
       <r>    7.8660    0.4700 </r>
       <r>    7.8660    0.4700 </r>
       <r>   10.3315    0.0000 </r>
       <r>   11.6706    0.0000 </r>
       <r>   11.9372    0.0000 </r>
       <r>   11.9372    0.0000 </r>
       <r>   13.9941    0.0000 </r>
      </set>
      <set comment="kpoint 94">
       <r>   -1.1570    1.0000 </r>
       <r>    2.8009    1.0000 </r>
       <r>    2.8395    1.0000 </r>
       <r>    2.8395    1.0000 </r>
       <r>    6.7074    1.0000 </r>
       <r>    6.7074    1.0000 </r>
       <r>    6.7447    1.0000 </r>
       <r>   10.5310    0.0000 </r>
       <r>   12.1524    0.0000 </r>
       <r>   12.2831    0.0000 </r>
       <r>   12.2831    0.0000 </r>
       <r>   15.1905    0.0000 </r>
      </set>
      <set comment="kpoint 95">
       <r>   -0.6463    1.0000 </r>
       <r>    1.7351    1.0000 </r>
       <r>    3.3346    1.0000 </r>
       <r>    3.3346    1.0000 </r>
       <r>    5.6694    1.0000 </r>
       <r>    5.6694    1.0000 </r>
       <r>    7.2320    1.0000 </r>
       <r>    9.5097    0.0000 </r>
       <r>   12.7488    0.0000 </r>
       <r>   12.7488    0.0000 </r>
       <r>   14.0955    0.0000 </r>
       <r>   14.8573    0.0000 </r>
      </set>
      <set comment="kpoint 96">
       <r>    0.0075    1.0000 </r>
       <r>    0.8023    1.0000 </r>
       <r>    3.9603    1.0000 </r>
       <r>    3.9603    1.0000 </r>
       <r>    4.7709    1.0000 </r>
       <r>    4.7709    1.0000 </r>
       <r>    7.8566    0.6285 </r>
       <r>    8.6167   -0.0000 </r>
       <r>   13.3090    0.0000 </r>
       <r>   13.3090    0.0000 </r>
       <r>   14.1331    0.0000 </r>
       <r>   14.1331    0.0000 </r>
      </set>
      <set comment="kpoint 97">
       <r>   -1.2981    1.0000 </r>
       <r>    1.1176    1.0000 </r>
       <r>    2.7025    1.0000 </r>
       <r>    5.0457    1.0000 </r>
       <r>    6.6942    1.0000 </r>
       <r>    8.1193   -0.0000 </r>
       <r>    8.9676   -0.0000 </r>
       <r>   10.3836    0.0000 </r>
       <r>   10.4860    0.0000 </r>
       <r>   11.8723    0.0000 </r>
       <r>   12.2233    0.0000 </r>
       <r>   12.7603    0.0000 </r>
      </set>
      <set comment="kpoint 98">
       <r>   -1.2250    1.0000 </r>
       <r>    1.1895    1.0000 </r>
       <r>    2.7735    1.0000 </r>
       <r>    5.1030    1.0000 </r>
       <r>    5.7886    1.0000 </r>
[...]
       <r>    1.0354    1.0000 </r>
       <r>    1.8323    1.0000 </r>
       <r>    3.3808    1.0000 </r>
       <r>    3.4031    1.0000 </r>
       <r>    4.1955    1.0000 </r>
       <r>    4.2177    1.0000 </r>
       <r>    5.7447    1.0000 </r>
       <r>    6.5201    1.0000 </r>
       <r>   15.5857    0.0000 </r>
       <r>   15.7175    0.0000 </r>
       <r>   16.2717    0.0000 </r>
       <r>   16.3994    0.0000 </r>
      </set>
      <set comment="kpoint 120">
       <r>    1.6816    1.0000 </r>
       <r>    2.4666    1.0000 </r>
       <r>    2.4743    1.0000 </r>
       <r>    3.2484    1.0000 </r>
       <r>    4.0687    1.0000 </r>
       <r>    4.8355    1.0000 </r>
       <r>    4.8432    1.0000 </r>
       <r>    5.6137    1.0000 </r>
       <r>   16.3036    0.0000 </r>
       <r>   16.9194    0.0000 </r>
       <r>   16.9342    0.0000 </r>
       <r>   17.5394    0.0000 </r>
      </set>
      <set comment="kpoint 121">
       <r>    0.5369    1.0000 </r>
       <r>    1.3365    1.0000 </r>
       <r>    1.3365    1.0000 </r>
       <r>    2.1318    1.0000 </r>
       <r>    8.4157   -0.0000 </r>
       <r>    9.1742   -0.0000 </r>
       <r>    9.1742   -0.0000 </r>
       <r>    9.8825    0.0000 </r>
       <r>    9.9330    0.0000 </r>
       <r>   10.6434    0.0000 </r>
       <r>   10.6434    0.0000 </r>
       <r>   11.3985    0.0000 </r>
      </set>
      <set comment="kpoint 122">
       <r>    0.6091    1.0000 </r>
       <r>    1.4084    1.0000 </r>
       <r>    1.4084    1.0000 </r>
       <r>    2.2032    1.0000 </r>
       <r>    7.5197    1.0000 </r>
       <r>    8.2852   -0.0000 </r>
       <r>    8.2852   -0.0000 </r>
       <r>    9.0491   -0.0000 </r>
       <r>   10.9028    0.0000 </r>
       <r>   11.6545    0.0000 </r>
       <r>   11.6545    0.0000 </r>
       <r>   12.4022    0.0000 </r>
      </set>
      <set comment="kpoint 123">
       <r>    0.8255    1.0000 </r>
       <r>    1.6236    1.0000 </r>
       <r>    1.6236    1.0000 </r>
       <r>    2.4171    1.0000 </r>
       <r>    6.2668    1.0000 </r>
       <r>    7.0386    1.0000 </r>
       <r>    7.0386    1.0000 </r>
       <r>    7.8083    1.0334 </r>
       <r>   12.5259    0.0000 </r>
       <r>   13.2627    0.0000 </r>
       <r>   13.2627    0.0000 </r>
       <r>   13.9966    0.0000 </r>
      </set>
      <set comment="kpoint 124">
       <r>    1.1856    1.0000 </r>
       <r>    1.9816    1.0000 </r>
       <r>    1.9816    1.0000 </r>
       <r>    2.7723    1.0000 </r>
       <r>    5.0956    1.0000 </r>
       <r>    5.8720    1.0000 </r>
       <r>    5.8720    1.0000 </r>
       <r>    6.6465    1.0000 </r>
       <r>   14.3043    0.0000 </r>
       <r>   15.0138    0.0000 </r>
       <r>   15.0138    0.0000 </r>
       <r>   15.7231    0.0000 </r>
      </set>
      <set comment="kpoint 125">
       <r>    1.6880    1.0000 </r>
       <r>    2.4806    1.0000 </r>
       <r>    2.4806    1.0000 </r>
       <r>    3.2620    1.0000 </r>
       <r>    4.0524    1.0000 </r>
       <r>    4.8266    1.0000 </r>
       <r>    4.8266    1.0000 </r>
       <r>    5.6048    1.0000 </r>
       <r>   16.1717    0.0000 </r>
       <r>   16.8078    0.0000 </r>
       <r>   16.8078    0.0000 </r>
       <r>   17.4691    0.0000 </r>
      </set>
      <set comment="kpoint 126">
       <r>    2.3308    1.0000 </r>
       <r>    3.1064    1.0000 </r>
       <r>    3.1139    1.0000 </r>
       <r>    3.1139    1.0000 </r>
       <r>    3.9188    1.0000 </r>
       <r>    3.9188    1.0000 </r>
       <r>    3.9262    1.0000 </r>
       <r>    4.6945    1.0000 </r>
       <r>   18.0428    0.0000 </r>
       <r>   18.1774    0.0000 </r>
       <r>   18.1799    0.0000 </r>
       <r>   18.3241    0.0000 </r>
      </set>
     </set>
    </set>
   </array>
  </eigenvalues>
  <separator name="orbital magnetization" >
   <v name="MAGDIPOLOUT">      0.00000000      0.00000000      0.00000000</v>
  </separator>
  <dos>
   <i name="efermi">      7.86424320 </i>
   <total>
    <array>
     <dimension dim="1">gridpoints</dimension>
     <dimension dim="2">spin</dimension>
     <field>energy</field>
     <field>total</field>
     <field>integrated</field>
     <set>
      <set comment="spin 1">
       <r>    -4.2310     0.0000     0.0000 </r>
       <r>    -4.1522     0.0000     0.0000 </r>
       <r>    -4.0735     0.0000     0.0000 </r>
       <r>    -3.9947     0.0000     0.0000 </r>
       <r>    -3.9160     0.0000     0.0000 </r>
       <r>    -3.8372     0.0000     0.0000 </r>
       <r>    -3.7584     0.0000     0.0000 </r>
       <r>    -3.6797     0.0000     0.0000 </r>
       <r>    -3.6009    -0.0000    -0.0000 </r>
       <r>    -3.5221    -0.0000    -0.0000 </r>
       <r>    -3.4434    -0.0000    -0.0000 </r>
       <r>    -3.3646    -0.0000    -0.0000 </r>
       <r>    -3.2858    -0.0000    -0.0000 </r>
       <r>    -3.2071    -0.0006    -0.0000 </r>
       <r>    -3.1283     0.0159     0.0012 </r>
       <r>    -3.0495     0.1119     0.0100 </r>
       <r>    -2.9708     0.2329     0.0284 </r>
       <r>    -2.8920     0.1591     0.0409 </r>
       <r>    -2.8133     0.1511     0.0528 </r>
       <r>    -2.7345     0.4913     0.0915 </r>
       <r>    -2.6557     0.3961     0.1227 </r>
       <r>    -2.5770     0.0369     0.1256 </r>
       <r>    -2.4982     0.3615     0.1541 </r>
       <r>    -2.4194     0.5785     0.1996 </r>
       <r>    -2.3407     0.4936     0.2385 </r>
       <r>    -2.2619     0.3152     0.2633 </r>
       <r>    -2.1831     0.3290     0.2893 </r>
       <r>    -2.1044     0.8465     0.3559 </r>
       <r>    -2.0256     0.2781     0.3778 </r>
       <r>    -1.9469     0.0598     0.3825 </r>
       <r>    -1.8681     0.8422     0.4489 </r>
       <r>    -1.7893     0.7593     0.5087 </r>
       <r>    -1.7106     0.5011     0.5482 </r>
       <r>    -1.6318     0.5123     0.5885 </r>
       <r>    -1.5530     0.9230     0.6612 </r>
       <r>    -1.4743     0.4088     0.6934 </r>
       <r>    -1.3955     0.0859     0.7002 </r>
       <r>    -1.3167     0.5254     0.7415 </r>
       <r>    -1.2380     0.9356     0.8152 </r>
       <r>    -1.1592     1.1721     0.9075 </r>
       <r>    -1.0804     0.2606     0.9281 </r>
       <r>    -1.0017     0.8692     0.9965 </r>
       <r>    -0.9229     1.2058     1.0915 </r>
       <r>    -0.8442     0.2451     1.1108 </r>
       <r>    -0.7654     0.1735     1.1245 </r>
       <r>    -0.6866     0.8815     1.1939 </r>
       <r>    -0.6079     0.9891     1.2718 </r>
       <r>    -0.5291     0.9510     1.3467 </r>
       <r>    -0.4503     0.6075     1.3946 </r>
       <r>    -0.3716     0.6616     1.4467 </r>
       <r>    -0.2928     1.1438     1.5368 </r>
       <r>    -0.2140     0.0898     1.5438 </r>
       <r>    -0.1353     1.1131     1.6315 </r>
       <r>    -0.0565     1.5686     1.7551 </r>
       <r>     0.0222     0.6905     1.8095 </r>
       <r>     0.1010     0.4538     1.8452 </r>
       <r>     0.1798     1.2397     1.9428 </r>
       <r>     0.2585     1.0961     2.0292 </r>
       <r>     0.3373     0.1283     2.0393 </r>
       <r>     0.4161     0.1967     2.0548 </r>
       <r>     0.4948     1.1231     2.1432 </r>
       <r>     0.5736     1.6408     2.2725 </r>
       <r>     0.6524     0.8459     2.3391 </r>
       <r>     0.7311     0.7830     2.4008 </r>
       <r>     0.8099     1.7536     2.5389 </r>
       <r>     0.8886     1.0424     2.6210 </r>
       <r>     0.9674     0.5122     2.6613 </r>
       <r>     1.0462     1.0354     2.7429 </r>
       <r>     1.1249     0.6201     2.7917 </r>
       <r>     1.2037     1.2798     2.8925 </r>
       <r>     1.2825     0.2269     2.9104 </r>
       <r>     1.3612     1.4593     3.0253 </r>
       <r>     1.4400     1.7014     3.1594 </r>
       <r>     1.5188     0.0186     3.1608 </r>
       <r>     1.5975     0.6588     3.2127 </r>
       <r>     1.6763     2.0762     3.3762 </r>
       <r>     1.7551     1.2980     3.4785 </r>
       <r>     1.8338     0.7481     3.5374 </r>
       <r>     1.9126     1.6509     3.6674 </r>
       <r>     1.9913     1.2950     3.7694 </r>
       <r>     2.0701     0.2045     3.7855 </r>
       <r>     2.1489     0.6526     3.8369 </r>
       <r>     2.2276     1.1939     3.9310 </r>
       <r>     2.3064     2.1911     4.1036 </r>
       <r>     2.3852     0.9863     4.1812 </r>
       <r>     2.4639     1.0383     4.2630 </r>
       <r>     2.5427     1.6304     4.3914 </r>
       <r>     2.6215     0.4461     4.4266 </r>
       <r>     2.7002     0.2955     4.4498 </r>
       <r>     2.7790     1.7735     4.5895 </r>
       <r>     2.8577     1.2506     4.6880 </r>
       <r>     2.9365     1.3805     4.7968 </r>
       <r>     3.0153     1.0507     4.8795 </r>
       <r>     3.0940     1.4127     4.9908 </r>
       <r>     3.1728     1.6721     5.1225 </r>
       <r>     3.2516     0.1383     5.1334 </r>
       <r>     3.3303     1.8144     5.2763 </r>
       <r>     3.4091     2.9556     5.5091 </r>
       <r>     3.4879     1.3356     5.6143 </r>
       <r>     3.5666     0.1611     5.6270 </r>
       <r>     3.6454     1.1006     5.7137 </r>
       <r>     3.7242     1.6028     5.8399 </r>
       <r>     3.8029     0.1598     5.8525 </r>
       <r>     3.8817     0.5133     5.8929 </r>
       <r>     3.9604     1.8414     6.0380 </r>
       <r>     4.0392     1.6306     6.1664 </r>
       <r>     4.1180     1.3749     6.2747 </r>
       <r>     4.1967     2.4092     6.4645 </r>
       <r>     4.2755     1.6315     6.5930 </r>
       <r>     4.3543     0.5816     6.6388 </r>
       <r>     4.4330     1.4697     6.7545 </r>
       <r>     4.5118     1.6404     6.8837 </r>
       <r>     4.5906     1.5003     7.0019 </r>
       <r>     4.6693     1.3325     7.1069 </r>
       <r>     4.7481     1.1136     7.1946 </r>
       <r>     4.8268     2.3732     7.3815 </r>
       <r>     4.9056     0.7311     7.4391 </r>
       <r>     4.9844     0.6145     7.4875 </r>
       <r>     5.0631     1.3339     7.5925 </r>
       <r>     5.1419     2.0033     7.7503 </r>
       <r>     5.2207     1.7532     7.8884 </r>
       <r>     5.2994     2.3097     8.0703 </r>
       <r>     5.3782     2.3834     8.2581 </r>
       <r>     5.4570     0.9532     8.3332 </r>
       <r>     5.5357     0.3017     8.3569 </r>
       <r>     5.6145     1.0973     8.4433 </r>
       <r>     5.6932     2.3257     8.6265 </r>
       <r>     5.7720     1.2208     8.7227 </r>
       <r>     5.8508     1.4991     8.8407 </r>
       <r>     5.9295     2.2138     9.0151 </r>
       <r>     6.0083     0.7933     9.0776 </r>
       <r>     6.0871     0.4657     9.1143 </r>
       <r>     6.1658     1.8512     9.2601 </r>
       <r>     6.2446     1.5024     9.3784 </r>
       <r>     6.3234     1.6300     9.5068 </r>
       <r>     6.4021     1.3345     9.6119 </r>
       <r>     6.4809     2.2255     9.7872 </r>
       <r>     6.5597     1.6262     9.9153 </r>
       <r>     6.6384     0.7957     9.9780 </r>
       <r>     6.7172     1.6661    10.1092 </r>
       <r>     6.7959     1.5717    10.2330 </r>
       <r>     6.8747     2.2538    10.4105 </r>
       <r>     6.9535     1.3640    10.5179 </r>
       <r>     7.0322     1.1773    10.6107 </r>
       <r>     7.1110     1.4001    10.7209 </r>
       <r>     7.1898     0.4606    10.7572 </r>
       <r>     7.2685     1.3388    10.8627 </r>
       <r>     7.3473     1.9268    11.0144 </r>
       <r>     7.4261     0.8459    11.0811 </r>
       <r>     7.5048     1.1553    11.1721 </r>
       <r>     7.5836     3.6586    11.4602 </r>
       <r>     7.6623     1.0706    11.5445 </r>
       <r>     7.7411     1.8765    11.6924 </r>
       <r>     7.8199     2.4445    11.8849 </r>
       <r>     7.8986     2.2536    12.0624 </r>
       <r>     7.9774     1.2997    12.1648 </r>
       <r>     8.0562     1.0377    12.2465 </r>
       <r>     8.1349     2.0490    12.4079 </r>
       <r>     8.2137     0.6820    12.4616 </r>
       <r>     8.2925     0.5669    12.5063 </r>
       <r>     8.3712     1.4921    12.6238 </r>
       <r>     8.4500     1.8043    12.7659 </r>
       <r>     8.5288     1.7446    12.9033 </r>
       <r>     8.6075     2.3271    13.0866 </r>
       <r>     8.6863     2.6414    13.2947 </r>
       <r>     8.7650     2.7823    13.5138 </r>
       <r>     8.8438     1.3711    13.6218 </r>
       <r>     8.9226     0.5468    13.6649 </r>
       <r>     9.0013     0.9505    13.7397 </r>
       <r>     9.0801     1.3589    13.8467 </r>
       <r>     9.1589     1.7291    13.9829 </r>
       <r>     9.2376     2.8801    14.2098 </r>
       <r>     9.3164     1.6660    14.3410 </r>
       <r>     9.3952     0.7454    14.3997 </r>
       <r>     9.4739     1.6234    14.5276 </r>
       <r>     9.5527     2.5185    14.7259 </r>
       <r>     9.6314     1.5448    14.8476 </r>
       <r>     9.7102     1.5625    14.9707 </r>
       <r>     9.7890     2.8945    15.1987 </r>
       <r>     9.8677     1.3127    15.3021 </r>
       <r>     9.9465     1.5022    15.4204 </r>
       <r>    10.0253     2.5626    15.6222 </r>
       <r>    10.1040     1.9599    15.7766 </r>
       <r>    10.1828     1.9939    15.9336 </r>
       <r>    10.2616     2.4927    16.1300 </r>
       <r>    10.3403     1.7790    16.2701 </r>
       <r>    10.4191     0.7971    16.3329 </r>
       <r>    10.4979     0.9936    16.4111 </r>
       <r>    10.5766     1.5072    16.5298 </r>
       <r>    10.6554     1.9758    16.6855 </r>
       <r>    10.7341     1.0475    16.7680 </r>
       <r>    10.8129     1.0262    16.8488 </r>
       <r>    10.8917     1.8571    16.9951 </r>
       <r>    10.9704     2.8444    17.2191 </r>
       <r>    11.0492     3.7084    17.5112 </r>
       <r>    11.1280     2.4899    17.7073 </r>
       <r>    11.2067     1.9030    17.8572 </r>
       <r>    11.2855     2.0970    18.0224 </r>
       <r>    11.3643     0.9866    18.1001 </r>
       <r>    11.4430     2.4947    18.2966 </r>
       <r>    11.5218     0.9407    18.3707 </r>
       <r>    11.6005     1.3089    18.4737 </r>
       <r>    11.6793     1.8585    18.6201 </r>
       <r>    11.7581     1.9109    18.7706 </r>
       <r>    11.8368     1.5276    18.8910 </r>
       <r>    11.9156     2.8062    19.1120 </r>
       <r>    11.9944     3.4295    19.3821 </r>
       <r>    12.0731     2.4223    19.5729 </r>
       <r>    12.1519     1.5870    19.6979 </r>
       <r>    12.2307     2.3709    19.8846 </r>
       <r>    12.3094     1.9940    20.0417 </r>
       <r>    12.3882     1.5960    20.1674 </r>
       <r>    12.4669     0.3102    20.1918 </r>
       <r>    12.5457     1.7159    20.3270 </r>
       <r>    12.6245     2.8021    20.5477 </r>
       <r>    12.7032     1.8869    20.6963 </r>
       <r>    12.7820     2.0306    20.8562 </r>
       <r>    12.8608     2.1190    21.0231 </r>
       <r>    12.9395     1.8508    21.1689 </r>
       <r>    13.0183     2.0538    21.3307 </r>
       <r>    13.0971     2.6405    21.5387 </r>
       <r>    13.1758     1.5131    21.6578 </r>
       <r>    13.2546     2.1132    21.8243 </r>
       <r>    13.3334     1.5509    21.9464 </r>
       <r>    13.4121     1.4128    22.0577 </r>
       <r>    13.4909     1.0341    22.1392 </r>
       <r>    13.5696     1.6728    22.2709 </r>
       <r>    13.6484     0.9814    22.3482 </r>
       <r>    13.7272     1.1415    22.4381 </r>
       <r>    13.8059     0.9455    22.5126 </r>
       <r>    13.8847     1.0907    22.5985 </r>
       <r>    13.9635     0.3250    22.6241 </r>
       <r>    14.0422     0.5591    22.6681 </r>
       <r>    14.1210     1.5188    22.7878 </r>
       <r>    14.1998     1.0301    22.8689 </r>
       <r>    14.2785     0.7871    22.9309 </r>
       <r>    14.3573     0.6894    22.9852 </r>
       <r>    14.4360     0.8684    23.0536 </r>
       <r>    14.5148     0.6306    23.1033 </r>
       <r>    14.5936     0.4791    23.1410 </r>
       <r>    14.6723     0.2604    23.1615 </r>
       <r>    14.7511     0.4200    23.1946 </r>
       <r>    14.8299     0.4478    23.2299 </r>
       <r>    14.9086     0.6081    23.2777 </r>
       <r>    14.9874     0.3273    23.3035 </r>
       <r>    15.0662     0.5298    23.3453 </r>
       <r>    15.1449     0.6073    23.3931 </r>
       <r>    15.2237     0.8179    23.4575 </r>
       <r>    15.3025     0.2834    23.4798 </r>
       <r>    15.3812     0.8271    23.5450 </r>
       <r>    15.4600    -0.0222    23.5432 </r>
       <r>    15.5387    -0.0058    23.5428 </r>
       <r>    15.6175     0.2848    23.5652 </r>
       <r>    15.6963     0.1536    23.5773 </r>
       <r>    15.7750     0.7854    23.6392 </r>
       <r>    15.8538     0.7341    23.6970 </r>
       <r>    15.9326     0.3335    23.7232 </r>
       <r>    16.0113     0.0041    23.7236 </r>
       <r>    16.0901    -0.0040    23.7233 </r>
       <r>    16.1689     0.0700    23.7288 </r>
       <r>    16.2476     0.1224    23.7384 </r>
       <r>    16.3264     0.5194    23.7793 </r>
       <r>    16.4051     0.5145    23.8198 </r>
       <r>    16.4839     0.1534    23.8319 </r>
       <r>    16.5627     0.1316    23.8423 </r>
       <r>    16.6414     0.0191    23.8438 </r>
       <r>    16.7202    -0.0059    23.8433 </r>
       <r>    16.7990     0.1119    23.8521 </r>
       <r>    16.8777     0.1983    23.8678 </r>
       <r>    16.9565     0.5533    23.9113 </r>
       <r>    17.0353     0.0603    23.9161 </r>
       <r>    17.1140    -0.0030    23.9159 </r>
       <r>    17.1928    -0.0000    23.9159 </r>
       <r>    17.2715    -0.0000    23.9159 </r>
       <r>    17.3503    -0.0003    23.9158 </r>
       <r>    17.4291     0.0007    23.9159 </r>
       <r>    17.5078     0.1701    23.9293 </r>
       <r>    17.5866     0.2933    23.9524 </r>
       <r>    17.6654    -0.0056    23.9519 </r>
       <r>    17.7441    -0.0003    23.9519 </r>
       <r>    17.8229    -0.0000    23.9519 </r>
       <r>    17.9017    -0.0000    23.9519 </r>
       <r>    17.9804    -0.0054    23.9515 </r>
       <r>    18.0592     0.1210    23.9610 </r>
       <r>    18.1380     0.0407    23.9642 </r>
       <r>    18.2167     0.2944    23.9874 </r>
       <r>    18.2955     0.0220    23.9891 </r>
       <r>    18.3742     0.1417    24.0003 </r>
       <r>    18.4530    -0.0037    24.0000 </r>
       <r>    18.5318    -0.0001    24.0000 </r>
       <r>    18.6105    -0.0000    24.0000 </r>
       <r>    18.6893    -0.0000    24.0000 </r>
       <r>    18.7681     0.0000    24.0000 </r>
       <r>    18.8468     0.0000    24.0000 </r>
       <r>    18.9256     0.0000    24.0000 </r>
       <r>    19.0044     0.0000    24.0000 </r>
       <r>    19.0831     0.0000    24.0000 </r>
       <r>    19.1619     0.0000    24.0000 </r>
       <r>    19.2406     0.0000    24.0000 </r>
       <r>    19.3194     0.0000    24.0000 </r>
       <r>    19.3982     0.0000    24.0000 </r>
      </set>
     </set>
    </array>
   </total>
  </dos>
 </calculation>
 <structure name="finalpos" >
  <crystal>
   <varray name="basis" >
    <v>       4.06353100       0.00000000       0.00000000 </v>
    <v>       0.00000000       4.04336400       0.00000000 </v>
    <v>       0.00000000       0.00000000       4.04336400 </v>
   </varray>
   <i name="volume">     66.43382488 </i>
   <varray name="rec_basis" >
    <v>       0.24609139       0.00000000       0.00000000 </v>
    <v>       0.00000000       0.24731882       0.00000000 </v>
    <v>       0.00000000       0.00000000       0.24731882 </v>
   </varray>
  </crystal>
  <varray name="positions" >
   <v>       0.00000000       0.00000000       0.00000000 </v>
   <v>       0.00000000       0.50000000       0.50000000 </v>
   <v>       0.50000000       0.00000000       0.50000000 </v>
   <v>       0.50000000       0.50000000       0.00000000 </v>
  </varray>
 </structure>
</modeling>
