<?xml version="1.0" encoding="ISO-8859-1"?>
<modeling>
 <generator>
  <i name="program" type="string">vasp </i>
  <i name="version" type="string">5.4.4.18Apr17-6-g9f103f2a35  </i>
  <i name="subversion" type="string">(build Jun 11 2017 21:30:58) complex            parallel </i>
  <i name="platform" type="string">LinuxIFC </i>
  <i name="date" type="string">2022 07 07 </i>
  <i name="time" type="string">18:38:59 </i>
 </generator>
 <incar>
  <i type="string" name="PREC">accurate</i>
  <i type="string" name="ALGO"> Normal</i>
  <i type="logical" name="ADDGRID"> T  </i>
  <i type="int" name="NELM">   100</i>
  <i type="int" name="NELMIN">     4</i>
  <i type="int" name="IBRION">    -1</i>
  <i name="EDIFF">      0.00005000</i>
  <i name="ENCUT">    520.00000000</i>
  <i type="logical" name="LREAL"> F  </i>
  <i type="int" name="ISMEAR">     1</i>
  <i name="SIGMA">      0.05000000</i>
  <i type="logical" name="LWAVE"> F  </i>
  <i type="logical" name="LCHARG"> F  </i>
  <i type="logical" name="LASPH"> T  </i>
  <v type="int" name="KPOINT_BSE">    -1     0     0     0</v>
  <i type="int" name="NELM">   100</i>
  <i type="logical" name="LASPH"> T  </i>
 </incar>
 <structure name="primitive_cell" >
  <crystal>
   <varray name="basis" >
    <v>       2.02168200       0.00000000       2.01154850 </v>
    <v>      -2.02168200       0.00000000       2.01154850 </v>
    <v>       0.00000000      -2.02168200      -2.01154850 </v>
   </varray>
   <i name="volume">     16.44319445 </i>
   <varray name="rec_basis" >
    <v>       0.24731882      -0.24731882       0.24856473 </v>
    <v>      -0.24731882      -0.24731882       0.24856473 </v>
    <v>       0.00000000      -0.49463763       0.00000000 </v>
   </varray>
  </crystal>
  <varray name="positions" >
   <v>       0.00000000       0.00000000       0.00000000 </v>
  </varray>
 </structure>
 <varray name="primitive_index" >
  <v type="int" >        1 </v>
 </varray>
 <kpoints>
  <generation param="Gamma">
   <v type="int" name="divisions">      11       11       11 </v>
   <v name="usershift">      0.00000000       0.00000000       0.00000000 </v>
   <v name="genvec1">      0.09090909       0.00000000       0.00000000 </v>
   <v name="genvec2">      0.00000000       0.09090909       0.00000000 </v>
   <v name="genvec3">      0.00000000       0.00000000       0.09090909 </v>
   <v name="shift">      0.00000000       0.00000000       0.00000000 </v>
  </generation>
  <varray name="kpointlist" >
   <v>       0.00000000       0.00000000       0.00000000 </v>
   <v>       0.09090909       0.00000000       0.00000000 </v>
   <v>       0.18181818       0.00000000       0.00000000 </v>
   <v>       0.27272727       0.00000000       0.00000000 </v>
   <v>       0.36363636       0.00000000       0.00000000 </v>
   <v>       0.45454545       0.00000000       0.00000000 </v>
   <v>       0.09090909       0.09090909       0.00000000 </v>
   <v>       0.18181818       0.09090909       0.00000000 </v>
   <v>       0.27272727       0.09090909       0.00000000 </v>
   <v>       0.36363636       0.09090909       0.00000000 </v>
   <v>       0.45454545       0.09090909       0.00000000 </v>
   <v>       0.18181818       0.18181818       0.00000000 </v>
   <v>       0.27272727       0.18181818       0.00000000 </v>
   <v>       0.36363636       0.18181818       0.00000000 </v>
   <v>       0.45454545       0.18181818       0.00000000 </v>
   <v>       0.27272727       0.27272727       0.00000000 </v>
   <v>       0.36363636       0.27272727       0.00000000 </v>
   <v>       0.45454545       0.27272727       0.00000000 </v>
   <v>       0.36363636       0.36363636       0.00000000 </v>
   <v>       0.45454545       0.36363636       0.00000000 </v>
   <v>       0.45454545       0.45454545       0.00000000 </v>
   <v>       0.00000000       0.00000000       0.09090909 </v>
   <v>       0.09090909       0.00000000       0.09090909 </v>
   <v>       0.18181818       0.00000000       0.09090909 </v>
   <v>       0.27272727       0.00000000       0.09090909 </v>
   <v>       0.36363636       0.00000000       0.09090909 </v>
   <v>       0.45454545       0.00000000       0.09090909 </v>
   <v>       0.09090909       0.09090909       0.09090909 </v>
   <v>       0.18181818       0.09090909       0.09090909 </v>
   <v>       0.27272727       0.09090909       0.09090909 </v>
   <v>       0.36363636       0.09090909       0.09090909 </v>
   <v>       0.45454545       0.09090909       0.09090909 </v>
   <v>       0.18181818       0.18181818       0.09090909 </v>
   <v>       0.27272727       0.18181818       0.09090909 </v>
   <v>       0.36363636       0.18181818       0.09090909 </v>
   <v>       0.45454545       0.18181818       0.09090909 </v>
   <v>       0.27272727       0.27272727       0.09090909 </v>
   <v>       0.36363636       0.27272727       0.09090909 </v>
   <v>       0.45454545       0.27272727       0.09090909 </v>
   <v>       0.36363636       0.36363636       0.09090909 </v>
   <v>       0.45454545       0.36363636       0.09090909 </v>
   <v>       0.45454545       0.45454545       0.09090909 </v>
   <v>       0.00000000       0.00000000       0.18181818 </v>
   <v>       0.09090909       0.00000000       0.18181818 </v>
   <v>       0.18181818       0.00000000       0.18181818 </v>
   <v>       0.27272727       0.00000000       0.18181818 </v>
   <v>       0.36363636       0.00000000       0.18181818 </v>
   <v>       0.45454545       0.00000000       0.18181818 </v>
   <v>       0.09090909       0.09090909       0.18181818 </v>
   <v>       0.18181818       0.09090909       0.18181818 </v>
   <v>       0.27272727       0.09090909       0.18181818 </v>
   <v>       0.36363636       0.09090909       0.18181818 </v>
   <v>       0.45454545       0.09090909       0.18181818 </v>
   <v>       0.18181818       0.18181818       0.18181818 </v>
   <v>       0.27272727       0.18181818       0.18181818 </v>
   <v>       0.36363636       0.18181818       0.18181818 </v>
   <v>       0.45454545       0.18181818       0.18181818 </v>
   <v>       0.27272727       0.27272727       0.18181818 </v>
   <v>       0.36363636       0.27272727       0.18181818 </v>
   <v>       0.45454545       0.27272727       0.18181818 </v>
   <v>       0.36363636       0.36363636       0.18181818 </v>
   <v>       0.45454545       0.36363636       0.18181818 </v>
   <v>       0.45454545       0.45454545       0.18181818 </v>
   <v>       0.00000000       0.00000000       0.27272727 </v>
   <v>       0.09090909       0.00000000       0.27272727 </v>
   <v>       0.18181818       0.00000000       0.27272727 </v>
   <v>       0.27272727       0.00000000       0.27272727 </v>
   <v>       0.36363636       0.00000000       0.27272727 </v>
   <v>       0.45454545       0.00000000       0.27272727 </v>
   <v>       0.09090909       0.09090909       0.27272727 </v>
   <v>       0.18181818       0.09090909       0.27272727 </v>
   <v>       0.27272727       0.09090909       0.27272727 </v>
   <v>       0.36363636       0.09090909       0.27272727 </v>
   <v>       0.45454545       0.09090909       0.27272727 </v>
   <v>       0.18181818       0.18181818       0.27272727 </v>
   <v>       0.27272727       0.18181818       0.27272727 </v>
   <v>       0.36363636       0.18181818       0.27272727 </v>
   <v>       0.45454545       0.18181818       0.27272727 </v>
   <v>       0.27272727       0.27272727       0.27272727 </v>
   <v>       0.36363636       0.27272727       0.27272727 </v>
   <v>       0.45454545       0.27272727       0.27272727 </v>
   <v>       0.36363636       0.36363636       0.27272727 </v>
   <v>       0.45454545       0.36363636       0.27272727 </v>
   <v>       0.45454545       0.45454545       0.27272727 </v>
   <v>       0.00000000       0.00000000       0.36363636 </v>
   <v>       0.09090909       0.00000000       0.36363636 </v>
   <v>       0.18181818       0.00000000       0.36363636 </v>
   <v>       0.27272727       0.00000000       0.36363636 </v>
   <v>       0.36363636       0.00000000       0.36363636 </v>
   <v>       0.45454545       0.00000000       0.36363636 </v>
   <v>       0.09090909       0.09090909       0.36363636 </v>
   <v>       0.18181818       0.09090909       0.36363636 </v>
   <v>       0.27272727       0.09090909       0.36363636 </v>
   <v>       0.36363636       0.09090909       0.36363636 </v>
   <v>       0.45454545       0.09090909       0.36363636 </v>
   <v>       0.18181818       0.18181818       0.36363636 </v>
   <v>       0.27272727       0.18181818       0.36363636 </v>
   <v>       0.36363636       0.18181818       0.36363636 </v>
   <v>       0.45454545       0.18181818       0.36363636 </v>
   <v>       0.27272727       0.27272727       0.36363636 </v>
   <v>       0.36363636       0.27272727       0.36363636 </v>
   <v>       0.45454545       0.27272727       0.36363636 </v>
   <v>       0.36363636       0.36363636       0.36363636 </v>
   <v>       0.45454545       0.36363636       0.36363636 </v>
   <v>       0.45454545       0.45454545       0.36363636 </v>
   <v>       0.00000000       0.00000000       0.45454545 </v>
   <v>       0.09090909       0.00000000       0.45454545 </v>
   <v>       0.18181818       0.00000000       0.45454545 </v>
   <v>       0.27272727       0.00000000       0.45454545 </v>
   <v>       0.36363636       0.00000000       0.45454545 </v>
   <v>       0.45454545       0.00000000       0.45454545 </v>
   <v>       0.09090909       0.09090909       0.45454545 </v>
   <v>       0.18181818       0.09090909       0.45454545 </v>
   <v>       0.27272727       0.09090909       0.45454545 </v>
   <v>       0.36363636       0.09090909       0.45454545 </v>
   <v>       0.45454545       0.09090909       0.45454545 </v>
   <v>       0.18181818       0.18181818       0.45454545 </v>
   <v>       0.27272727       0.18181818       0.45454545 </v>
   <v>       0.36363636       0.18181818       0.45454545 </v>
   <v>       0.45454545       0.18181818       0.45454545 </v>
   <v>       0.27272727       0.27272727       0.45454545 </v>
   <v>       0.36363636       0.27272727       0.45454545 </v>
   <v>       0.45454545       0.27272727       0.45454545 </v>
   <v>       0.36363636       0.36363636       0.45454545 </v>
   <v>       0.45454545       0.36363636       0.45454545 </v>
   <v>       0.45454545       0.45454545       0.45454545 </v>
  </varray>
  <varray name="weights" >
   <v>       0.00075131 </v>
   <v>       0.00300526 </v>
   <v>       0.00300526 </v>
   <v>       0.00300526 </v>
   <v>       0.00300526 </v>
   <v>       0.00300526 </v>
   <v>       0.00300526 </v>
   <v>       0.00601052 </v>
   <v>       0.00601052 </v>
   <v>       0.00601052 </v>
   <v>       0.00601052 </v>
   <v>       0.00300526 </v>
   <v>       0.00601052 </v>
   <v>       0.00601052 </v>
   <v>       0.00601052 </v>
   <v>       0.00300526 </v>
   <v>       0.00601052 </v>
   <v>       0.00601052 </v>
   <v>       0.00300526 </v>
   <v>       0.00601052 </v>
   <v>       0.00300526 </v>
   <v>       0.00150263 </v>
   <v>       0.00601052 </v>
   <v>       0.00601052 </v>
   <v>       0.00601052 </v>
   <v>       0.00601052 </v>
   <v>       0.00601052 </v>
   <v>       0.00601052 </v>
   <v>       0.01202104 </v>
   <v>       0.01202104 </v>
   <v>       0.01202104 </v>
   <v>       0.01202104 </v>
   <v>       0.00601052 </v>
   <v>       0.01202104 </v>
   <v>       0.01202104 </v>
   <v>       0.01202104 </v>
   <v>       0.00601052 </v>
   <v>       0.01202104 </v>
   <v>       0.01202104 </v>
   <v>       0.00601052 </v>
   <v>       0.01202104 </v>
   <v>       0.00601052 </v>
   <v>       0.00150263 </v>
   <v>       0.00601052 </v>
   <v>       0.00601052 </v>
   <v>       0.00601052 </v>
   <v>       0.00601052 </v>
   <v>       0.00601052 </v>
   <v>       0.00601052 </v>
   <v>       0.01202104 </v>
   <v>       0.01202104 </v>
   <v>       0.01202104 </v>
   <v>       0.01202104 </v>
   <v>       0.00601052 </v>
   <v>       0.01202104 </v>
   <v>       0.01202104 </v>
   <v>       0.01202104 </v>
   <v>       0.00601052 </v>
   <v>       0.01202104 </v>
   <v>       0.01202104 </v>
   <v>       0.00601052 </v>
   <v>       0.01202104 </v>
   <v>       0.00601052 </v>
   <v>       0.00150263 </v>
   <v>       0.00601052 </v>
   <v>       0.00601052 </v>
   <v>       0.00601052 </v>
   <v>       0.00601052 </v>
   <v>       0.00601052 </v>
   <v>       0.00601052 </v>
   <v>       0.01202104 </v>
   <v>       0.01202104 </v>
   <v>       0.01202104 </v>
   <v>       0.01202104 </v>
   <v>       0.00601052 </v>
   <v>       0.01202104 </v>
   <v>       0.01202104 </v>
   <v>       0.01202104 </v>
   <v>       0.00601052 </v>
   <v>       0.01202104 </v>
   <v>       0.01202104 </v>
   <v>       0.00601052 </v>
   <v>       0.01202104 </v>
   <v>       0.00601052 </v>
   <v>       0.00150263 </v>
   <v>       0.00601052 </v>
   <v>       0.00601052 </v>
   <v>       0.00601052 </v>
   <v>       0.00601052 </v>
   <v>       0.00601052 </v>
   <v>       0.00601052 </v>
   <v>       0.01202104 </v>
   <v>       0.01202104 </v>
   <v>       0.01202104 </v>
   <v>       0.01202104 </v>
   <v>       0.00601052 </v>
   <v>       0.01202104 </v>
   <v>       0.01202104 </v>
   <v>       0.01202104 </v>
   <v>       0.00601052 </v>
   <v>       0.01202104 </v>
   <v>       0.01202104 </v>
   <v>       0.00601052 </v>
   <v>       0.01202104 </v>
   <v>       0.00601052 </v>
   <v>       0.00150263 </v>
   <v>       0.00601052 </v>
   <v>       0.00601052 </v>
   <v>       0.00601052 </v>
   <v>       0.00601052 </v>
   <v>       0.00601052 </v>
   <v>       0.00601052 </v>
   <v>       0.01202104 </v>
   <v>       0.01202104 </v>
   <v>       0.01202104 </v>
   <v>       0.01202104 </v>
   <v>       0.00601052 </v>
   <v>       0.01202104 </v>
   <v>       0.01202104 </v>
   <v>       0.01202104 </v>
   <v>       0.00601052 </v>
   <v>       0.01202104 </v>
   <v>       0.01202104 </v>
   <v>       0.00601052 </v>
   <v>       0.01202104 </v>
   <v>       0.00601052 </v>
  </varray>
 </kpoints>
 <parameters>
  <separator name="general" >
   <i type="string" name="SYSTEM">unknown system</i>
   <i type="logical" name="LCOMPAT"> F  </i>
  </separator>
  <separator name="electronic" >
   <i type="string" name="PREC">accura</i>
   <i name="ENMAX">    520.00000000</i>
   <i name="ENAUG">    291.05200000</i>
   <i name="EDIFF">      0.00005000</i>
   <i type="int" name="IALGO">    38</i>
   <i type="int" name="IWAVPR">    10</i>
   <i type="int" name="NBANDS">    12</i>
   <i name="NELECT">     12.00000000</i>
   <i type="int" name="TURBO">     0</i>
   <i type="int" name="IRESTART">     0</i>
   <i type="int" name="NREBOOT">     0</i>
   <i type="int" name="NMIN">     0</i>
   <i name="EREF">      0.00000000</i>
   <separator name="electronic smearing" >
    <i type="int" name="ISMEAR">     1</i>
    <i name="SIGMA">      0.05000000</i>
    <i name="KSPACING">      0.50000000</i>
    <i type="logical" name="KGAMMA"> T  </i>
   </separator>
   <separator name="electronic projectors" >
    <i type="logical" name="LREAL"> F  </i>
    <v name="ROPT">      0.00000000</v>
    <i type="int" name="LMAXPAW">  -100</i>
    <i type="int" name="LMAXMIX">     2</i>
    <i type="logical" name="NLSPLINE"> F  </i>
   </separator>
   <separator name="electronic startup" >
    <i type="int" name="ISTART">     0</i>
    <i type="int" name="ICHARG">     2</i>
    <i type="int" name="INIWAV">     1</i>
   </separator>
   <separator name="electronic spin" >
    <i type="int" name="ISPIN">     1</i>
    <i type="logical" name="LNONCOLLINEAR"> F  </i>
    <v name="MAGMOM">      1.00000000      1.00000000      1.00000000      1.00000000</v>
    <i name="NUPDOWN">     -1.00000000</i>
    <i type="logical" name="LSORBIT"> F  </i>
    <v name="SAXIS">      0.00000000      0.00000000      1.00000000</v>
    <i type="logical" name="LSPIRAL"> F  </i>
    <v name="QSPIRAL">      0.00000000      0.00000000      0.00000000</v>
    <i type="logical" name="LZEROZ"> F  </i>
   </separator>
   <separator name="electronic exchange-correlation" >
    <i type="logical" name="LASPH"> T  </i>
    <i type="logical" name="LMETAGGA"> F  </i>
   </separator>
   <separator name="electronic convergence" >
    <i type="int" name="NELM">   100</i>
    <i type="int" name="NELMDL">    -5</i>
    <i type="int" name="NELMIN">     4</i>
    <i name="ENINI">    520.00000000</i>
    <separator name="electronic convergence detail" >
     <i type="logical" name="LDIAG"> T  </i>
     <i type="logical" name="LSUBROT"> F  </i>
     <i name="WEIMIN">      0.00000000</i>
     <i name="EBREAK">      0.00000104</i>
     <i name="DEPER">      0.30000000</i>
     <i type="int" name="NRMM">     4</i>
     <i name="TIME">      0.40000000</i>
    </separator>
   </separator>
   <separator name="electronic mixer" >
    <i name="AMIX">      0.40000000</i>
    <i name="BMIX">      1.00000000</i>
    <i name="AMIN">      0.10000000</i>
    <i name="AMIX_MAG">      1.60000000</i>
    <i name="BMIX_MAG">      1.00000000</i>
    <separator name="electronic mixer details" >
     <i type="int" name="IMIX">     4</i>
     <i type="logical" name="MIXFIRST"> F  </i>
     <i type="int" name="MAXMIX">   -45</i>
     <i name="WC">    100.00000000</i>
     <i type="int" name="INIMIX">     1</i>
     <i type="int" name="MIXPRE">     1</i>
     <i type="int" name="MREMOVE">     5</i>
    </separator>
   </separator>
   <separator name="electronic dipolcorrection" >
    <i type="logical" name="LDIPOL"> F  </i>
    <i type="logical" name="LMONO"> F  </i>
    <i type="int" name="IDIPOL">     0</i>
    <i name="EPSILON">      1.00000000</i>
    <v name="DIPOL">   -100.00000000   -100.00000000   -100.00000000</v>
    <i name="EFIELD">      0.00000000</i>
   </separator>
  </separator>
  <separator name="grids" >
   <i type="int" name="NGX">    30</i>
   <i type="int" name="NGY">    30</i>
   <i type="int" name="NGZ">    30</i>
   <i type="int" name="NGXF">    60</i>
   <i type="int" name="NGYF">    60</i>
   <i type="int" name="NGZF">    60</i>
   <i type="logical" name="ADDGRID"> T  </i>
  </separator>
  <separator name="ionic" >
   <i type="int" name="NSW">     0</i>
   <i type="int" name="IBRION">    -1</i>
   <i type="int" name="MDALGO">     0</i>
   <i type="int" name="ISIF">     2</i>
   <i name="PSTRESS">      0.00000000</i>
   <i name="EDIFFG">      0.00050000</i>
   <i type="int" name="NFREE">     0</i>
   <i name="POTIM">      0.50000000</i>
   <i name="SMASS">     -3.00000000</i>
   <i name="SCALEE">      1.00000000</i>
  </separator>
  <separator name="ionic md" >
   <i name="TEBEG">      0.00010000</i>
   <i name="TEEND">      0.00010000</i>
   <i type="int" name="NBLOCK">     1</i>
   <i type="int" name="KBLOCK">     1</i>
   <i type="int" name="NPACO">   256</i>
   <i name="APACO">     16.00000000</i>
  </separator>
  <separator name="symmetry" >
   <i type="int" name="ISYM">     2</i>
   <i name="SYMPREC">      0.00001000</i>
  </separator>
  <separator name="dos" >
   <i type="int" name="LORBIT">     0</i>
   <v name="RWIGS">     -1.00000000</v>
   <i type="int" name="NEDOS">   301</i>
   <i name="EMIN">     10.00000000</i>
   <i name="EMAX">    -10.00000000</i>
   <i name="EFERMI">      0.00000000</i>
  </separator>
  <separator name="writing" >
   <i type="int" name="NWRITE">     2</i>
   <i type="logical" name="LWAVE"> F  </i>
   <i type="logical" name="LDOWNSAMPLE"> F  </i>
   <i type="logical" name="LCHARG"> F  </i>
   <i type="logical" name="LPARD"> F  </i>
   <i type="logical" name="LVTOT"> F  </i>
   <i type="logical" name="LVHAR"> F  </i>
   <i type="logical" name="LELF"> F  </i>
   <i type="logical" name="LOPTICS"> F  </i>
   <v name="STM">      0.00000000      0.00000000      0.00000000      0.00000000      0.00000000      0.00000000      0.00000000</v>
  </separator>
  <separator name="performance" >
   <i type="int" name="NPAR">     4</i>
   <i type="int" name="NSIM">     4</i>
   <i type="int" name="NBLK">    -1</i>
   <i type="logical" name="LPLANE"> T  </i>
   <i type="logical" name="LSCALAPACK"> T  </i>
   <i type="logical" name="LSCAAWARE"> F  </i>
   <i type="logical" name="LSCALU"> F  </i>
   <i type="logical" name="LASYNC"> F  </i>
   <i type="logical" name="LORBITALREAL"> F  </i>
  </separator>
  <separator name="miscellaneous" >
   <i type="int" name="IDIOT">     3</i>
   <i type="int" name="ISPECIAL">     0</i>
   <i type="logical" name="LMUSIC"> F  </i>
   <v name="POMASS">     26.98100000</v>
   <v name="DARWINR">      0.00000000</v>
   <v name="DARWINV">      1.00000000</v>
   <i type="logical" name="LCORR"> T  </i>
  </separator>
  <i type="logical" name="GGA_COMPAT"> T  </i>
  <i type="logical" name="LBERRY"> F  </i>
  <i type="int" name="ICORELEVEL">     0</i>
  <i type="logical" name="LDAU"> F  </i>
  <i type="int" name="I_CONSTRAINED_M">     0</i>
  <separator name="electronic exchange-correlation" >
   <i type="string" name="GGA">--</i>
   <i type="int" name="VOSKOWN">     0</i>
   <i type="logical" name="LHFCALC"> F  </i>
   <i type="string" name="PRECFOCK"></i>
   <i type="logical" name="LSYMGRAD"> F  </i>
   <i type="logical" name="LHFONE"> F  </i>
   <i type="logical" name="LRHFCALC"> F  </i>
   <i type="logical" name="LTHOMAS"> F  </i>
   <i type="logical" name="LMODELHF"> F  </i>
   <i name="ENCUT4O">     -1.00000000</i>
   <i type="int" name="EXXOEP">     0</i>
   <i type="int" name="FOURORBIT">     0</i>
   <i name="AEXX">      0.00000000</i>
   <i name="HFALPHA">      0.00000000</i>
   <i name="MCALPHA">      0.00000000</i>
   <i name="ALDAX">      1.00000000</i>
   <i name="AGGAX">      1.00000000</i>
   <i name="ALDAC">      1.00000000</i>
   <i name="AGGAC">      1.00000000</i>
   <i type="int" name="NKREDX">     1</i>
   <i type="int" name="NKREDY">     1</i>
   <i type="int" name="NKREDZ">     1</i>
   <i type="logical" name="SHIFTRED"> F  </i>
   <i type="logical" name="ODDONLY"> F  </i>
   <i type="logical" name="EVENONLY"> F  </i>
   <i type="int" name="LMAXFOCK">     0</i>
   <i type="int" name="NMAXFOCKAE">     0</i>
   <i type="logical" name="LFOCKAEDFT"> F  </i>
   <i name="HFSCREEN">      0.00000000</i>
   <i name="HFSCREENC">      0.00000000</i>
   <i type="int" name="NBANDSGWLOW">     0</i>
  </separator>
  <separator name="vdW DFT" >
   <i type="logical" name="LUSE_VDW"> F  </i>
   <i name="Zab_VDW">     -0.84910000</i>
   <i name="PARAM1">      0.12340000</i>
   <i name="PARAM2">      1.00000000</i>
   <i name="PARAM3">      0.00000000</i>
  </separator>
  <separator name="model GW" >
   <i type="int" name="MODEL_GW">     0</i>
   <i name="MODEL_EPS0">      9.86591667</i>
   <i name="MODEL_ALPHA">      1.00000000</i>
  </separator>
  <separator name="linear response parameters" >
   <i type="logical" name="LEPSILON"> F  </i>
   <i type="logical" name="LRPA"> F  </i>
   <i type="logical" name="LNABLA"> F  </i>
   <i type="logical" name="LVEL"> F  </i>
   <i type="int" name="KINTER">     0</i>
   <i name="CSHIFT">      0.10000000</i>
   <i name="OMEGAMAX">     -1.00000000</i>
   <i name="DEG_THRESHOLD">      0.00200000</i>
   <i name="RTIME">     -0.10000000</i>
   <i name="WPLASMAI">      0.00000000</i>
   <v name="DFIELD">      0.00000000      0.00000000      0.00000000</v>
   <v name="WPLASMA">      0.00000000      0.00000000      0.00000000      0.00000000      0.00000000      0.00000000      0.00000000      0.00000000      0.00000000</v>
  </separator>
  <separator name="orbital magnetization" >
   <i type="logical" name="NUCIND"> F  </i>
   <v name="MAGPOS">      0.00000000      0.00000000      0.00000000</v>
   <i type="logical" name="LNICSALL"> T  </i>
   <i type="logical" name="ORBITALMAG"> F  </i>
   <i type="logical" name="LMAGBLOCH"> F  </i>
   <i type="logical" name="LCHIMAG"> F  </i>
   <i type="logical" name="LGAUGE"> T  </i>
   <i type="int" name="MAGATOM">     0</i>
   <v name="MAGDIPOL">      0.00000000      0.00000000      0.00000000</v>
   <v name="AVECCONST">      0.00000000      0.00000000      0.00000000</v>
  </separator>
  <separator name="response functions" >
   <i type="logical" name="LADDER"> F  </i>
   <i type="logical" name="LRPAFORCE"> F  </i>
   <i type="logical" name="LFXC"> F  </i>
   <i type="logical" name="LHARTREE"> T  </i>
   <i type="int" name="IBSE">     0</i>
   <v type="int" name="KPOINT">    -1     0     0     0</v>
   <i type="logical" name="LTCTE"> F  </i>
   <i type="logical" name="LTETE"> F  </i>
   <i type="logical" name="LTRIPLET"> F  </i>
   <i type="logical" name="LFXCEPS"> F  </i>
   <i type="logical" name="LFXHEG"> F  </i>
   <i type="int" name="NATURALO">     2</i>
   <i type="logical" name="L2ORDER"> F  </i>
   <i type="logical" name="LMP2LT"> F  </i>
   <i type="logical" name="LUSEW"> F  </i>
   <i name="ENCUTGW">     -2.00000000</i>
   <i name="ENCUTGWSOFT">     -2.00000000</i>
   <i name="ENCUTLF">     -1.00000000</i>
   <i type="int" name="LMAXMP2">    -1</i>
   <i name="SCISSOR">      0.00000000</i>
   <i type="int" name="NOMEGA">     0</i>
   <i type="int" name="NOMEGAR">     0</i>
   <i type="int" name="NBANDSGW">    -1</i>
   <i type="int" name="NBANDSO">    -1</i>
   <i type="int" name="NBANDSV">    -1</i>
   <i type="int" name="NELM">   100</i>
   <i type="int" name="NELMHF">     1</i>
   <i type="int" name="DIM">     3</i>
   <i type="int" name="ANTIRES">     0</i>
   <i name="OMEGAMAX">    -30.00000000</i>
   <i name="OMEGAMIN">    -30.00000000</i>
   <i name="OMEGATL">   -200.00000000</i>
   <i type="int" name="OMEGAGRID">   140</i>
   <i name="CSHIFT">     -0.10000000</i>
   <i type="logical" name="SELFENERGY"> F  </i>
   <i type="logical" name="LSPECTRAL"> F  </i>
   <i type="logical" name="LSPECTRALGW"> F  </i>
   <i type="logical" name="LSINGLES"> F  </i>
   <i type="logical" name="LFERMIGW"> F  </i>
   <i type="logical" name="ODDONLYGW"> F  </i>
   <i type="logical" name="EVENONLYGW"> F  </i>
   <i type="int" name="NKREDLFX">     1</i>
   <i type="int" name="NKREDLFY">     1</i>
   <i type="int" name="NKREDLFZ">     1</i>
   <i type="int" name="MAXMEM">  2800</i>
   <i type="int" name="TELESCOPE">     0</i>
   <i type="int" name="TAUPAR">     1</i>
   <i type="int" name="OMEGAPAR">    -1</i>
   <i name="LAMBDA">      1.00000000</i>
  </separator>
  <separator name="External order field" >
   <i name="OFIELD_KAPPA">      0.00000000</i>
   <v name="OFIELD_K">      0.00000000      0.00000000      0.00000000</v>
   <i name="OFIELD_Q6_NEAR">      0.00000000</i>
   <i name="OFIELD_Q6_FAR">      0.00000000</i>
   <i name="OFIELD_A">      0.00000000</i>
  </separator>
 </parameters>
 <atominfo>
  <atoms>       4 </atoms>
  <types>       1 </types>
  <array name="atoms" >
   <dimension dim="1">ion</dimension>
   <field type="string">element</field>
   <field type="int">atomtype</field>
   <set>
    <rc><c>Al</c><c>   1</c></rc>
    <rc><c>Al</c><c>   1</c></rc>
    <rc><c>Al</c><c>   1</c></rc>
    <rc><c>Al</c><c>   1</c></rc>
   </set>
  </array>
  <array name="atomtypes" >
   <dimension dim="1">type</dimension>
   <field type="int">atomspertype</field>
   <field type="string">element</field>
   <field>mass</field>
   <field>valence</field>
   <field type="string">pseudopotential</field>
   <set>
    <rc><c>   4</c><c>Al</c><c>     26.98100000</c><c>      3.00000000</c><c>  PAW_PBE Al 04Jan2001                  </c></rc>
   </set>
  </array>
 </atominfo>
 <structure name="initialpos" >
  <crystal>
   <varray name="basis" >
    <v>       4.04336400       0.00000000       0.00000000 </v>
    <v>       0.00000000       4.04336400       0.00000000 </v>
    <v>       0.00000000       0.00000000       4.02309700 </v>
   </varray>
   <i name="volume">     65.77277780 </i>
   <varray name="rec_basis" >
    <v>       0.24731882       0.00000000       0.00000000 </v>
    <v>       0.00000000       0.24731882       0.00000000 </v>
    <v>       0.00000000       0.00000000       0.24856473 </v>
   </varray>
  </crystal>
  <varray name="positions" >
   <v>       0.00000000       0.00000000       0.00000000 </v>
   <v>       0.00000000       0.50000000       0.50000000 </v>
   <v>       0.50000000       0.00000000       0.50000000 </v>
   <v>       0.50000000       0.50000000       0.00000000 </v>
  </varray>
 </structure>
 <calculation>
  <scstep>
   <time name="dav">    0.46    0.48</time>
   <time name="total">    0.56    0.58</time>
   <energy>
    <i name="alphaZ">     -0.81706992 </i>
    <i name="ewald">   -294.40101297 </i>
    <i name="hartreedc">     -0.40048327 </i>
    <i name="XCdc">   -104.93412392 </i>
    <i name="pawpsdc">    264.80062850 </i>
    <i name="pawaedc">   -136.98248303 </i>
    <i name="eentropy">      0.00010212 </i>
    <i name="bandstr">     65.62576267 </i>
    <i name="atom">    214.15382826 </i>
    <i name="e_fr_energy">      7.04514844 </i>
    <i name="e_wo_entrp">      7.04504632 </i>
    <i name="e_0_energy">      7.04511440 </i>
   </energy>
  </scstep>
  <scstep>
   <time name="dav">    0.53    0.53</time>
   <time name="total">    0.53    0.53</time>
   <energy>
    <i name="e_fr_energy">    -14.31036010 </i>
    <i name="e_wo_entrp">    -14.31041879 </i>
    <i name="e_0_energy">    -14.31037966 </i>
   </energy>
  </scstep>
  <scstep>
   <time name="dav">    0.54    0.54</time>
   <time name="total">    0.55    0.55</time>
   <energy>
    <i name="e_fr_energy">    -15.06049839 </i>
    <i name="e_wo_entrp">    -15.06040941 </i>
    <i name="e_0_energy">    -15.06046873 </i>
   </energy>
  </scstep>
  <scstep>
   <time name="dav">    0.49    0.49</time>
   <time name="total">    0.49    0.49</time>
   <energy>
    <i name="e_fr_energy">    -15.06605422 </i>
    <i name="e_wo_entrp">    -15.06597401 </i>
    <i name="e_0_energy">    -15.06602748 </i>
   </energy>
  </scstep>
  <scstep>
   <time name="dav">    0.53    0.53</time>
   <time name="total">    0.58    0.58</time>
   <energy>
    <i name="e_fr_energy">    -15.06610861 </i>
    <i name="e_wo_entrp">    -15.06602846 </i>
    <i name="e_0_energy">    -15.06608189 </i>
   </energy>
  </scstep>
  <scstep>
   <time name="dav">    0.48    0.48</time>
   <time name="total">    0.61    0.61</time>
   <energy>
    <i name="e_fr_energy">    -15.01461978 </i>
    <i name="e_wo_entrp">    -15.01457426 </i>
    <i name="e_0_energy">    -15.01460460 </i>
   </energy>
  </scstep>
  <scstep>
   <time name="dav">    0.48    0.48</time>
   <time name="total">    0.61    0.61</time>
   <energy>
    <i name="e_fr_energy">    -14.97703551 </i>
    <i name="e_wo_entrp">    -14.97702362 </i>
    <i name="e_0_energy">    -14.97703154 </i>
   </energy>
  </scstep>
  <scstep>
   <time name="dav">    0.53    0.53</time>
   <time name="total">    0.66    0.66</time>
   <energy>
    <i name="e_fr_energy">    -14.97693160 </i>
    <i name="e_wo_entrp">    -14.97692003 </i>
    <i name="e_0_energy">    -14.97692775 </i>
   </energy>
  </scstep>
  <scstep>
   <time name="dav">    0.36    0.36</time>
   <time name="total">    0.45    0.45</time>
   <energy>
    <i name="alphaZ">     -0.81706992 </i>
    <i name="ewald">   -294.40101297 </i>
    <i name="hartreedc">     -0.42429462 </i>
    <i name="XCdc">   -104.49263626 </i>
    <i name="pawpsdc">    566.35816578 </i>
    <i name="pawaedc">   -438.59369470 </i>
    <i name="eentropy">     -0.00001133 </i>
    <i name="bandstr">     43.23980086 </i>
    <i name="atom">    214.15382826 </i>
    <i name="e_fr_energy">    -14.97692490 </i>
    <i name="e_wo_entrp">    -14.97691357 </i>
    <i name="e_0_energy">    -14.97692113 </i>
   </energy>
  </scstep>
  <structure>
   <crystal>
    <varray name="basis" >
     <v>       4.04336400       0.00000000       0.00000000 </v>
     <v>       0.00000000       4.04336400       0.00000000 </v>
     <v>       0.00000000       0.00000000       4.02309700 </v>
    </varray>
    <i name="volume">     65.77277780 </i>
    <varray name="rec_basis" >
     <v>       0.24731882       0.00000000       0.00000000 </v>
     <v>       0.00000000       0.24731882       0.00000000 </v>
     <v>       0.00000000       0.00000000       0.24856473 </v>
    </varray>
   </crystal>
   <varray name="positions" >
    <v>       0.00000000       0.00000000       0.00000000 </v>
    <v>       0.00000000       0.50000000       0.50000000 </v>
    <v>       0.50000000       0.00000000       0.50000000 </v>
    <v>       0.50000000       0.50000000       0.00000000 </v>
   </varray>
  </structure>
  <varray name="forces" >
   <v>       0.00000000      -0.00000000       0.00000000 </v>
   <v>      -0.00000000      -0.00000000      -0.00000000 </v>
   <v>       0.00000000      -0.00000000       0.00000000 </v>
   <v>       0.00000000       0.00000000      -0.00000000 </v>
  </varray>
  <varray name="stress" >
   <v>       3.16948328       0.00000000      -0.00000000 </v>
   <v>       0.00000000       3.16948328       0.00000000 </v>
   <v>      -0.00000000       0.00000000       4.26862286 </v>
  </varray>
  <energy>
   <i name="e_fr_energy">    -14.97692490 </i>
   <i name="e_wo_entrp">    -14.97692113 </i>
   <i name="e_0_energy">     -0.00001133 </i>
  </energy>
  <time name="totalsc">    5.76    5.80</time>
  <eigenvalues>
   <array>
    <dimension dim="1">band</dimension>
    <dimension dim="2">kpoint</dimension>
    <dimension dim="3">spin</dimension>
    <field>eigene</field>
    <field>occ</field>
    <set>
     <set comment="spin 1">
      <set comment="kpoint 1">
       <r>   -3.1217    1.0000 </r>
       <r>    5.0804    1.0000 </r>
       <r>    5.0804    1.0000 </r>
       <r>    5.1533    1.0000 </r>
       <r>    6.4007    1.0000 </r>
       <r>    6.4007    1.0000 </r>
       <r>    6.5042    1.0000 </r>
       <r>   13.2569    0.0000 </r>
       <r>   13.3150    0.0000 </r>
       <r>   13.3150    0.0000 </r>
       <r>   13.5857    0.0000 </r>
       <r>   13.5871    0.0000 </r>
      </set>
      <set comment="kpoint 2">
       <r>   -3.0469    1.0000 </r>
       <r>    4.1036    1.0000 </r>
       <r>    5.1489    1.0000 </r>
       <r>    5.2217    1.0000 </r>
       <r>    6.4730    1.0000 </r>
       <r>    6.5764    1.0000 </r>
       <r>    7.5070    1.0000 </r>
       <r>   11.9602    0.0000 </r>
       <r>   12.0271    0.0000 </r>
       <r>   13.0810    0.0000 </r>
       <r>   13.1891    0.0000 </r>
       <r>   13.3888    0.0000 </r>
      </set>
      <set comment="kpoint 3">
       <r>   -2.8227    1.0000 </r>
       <r>    2.7969    1.0000 </r>
       <r>    5.3544    1.0000 </r>
       <r>    5.4270    1.0000 </r>
       <r>    6.6886    1.0000 </r>
       <r>    6.7915    1.0000 </r>
       <r>    9.2021   -0.0000 </r>
       <r>   10.6516    0.0000 </r>
       <r>   10.7198    0.0000 </r>
       <r>   12.0797    0.0000 </r>
       <r>   12.1853    0.0000 </r>
       <r>   13.6100    0.0000 </r>
      </set>
      <set comment="kpoint 4">
       <r>   -2.4497    1.0000 </r>
       <r>    1.5836    1.0000 </r>
       <r>    5.6970    1.0000 </r>
       <r>    5.7694    1.0000 </r>
       <r>    7.0427    1.0000 </r>
       <r>    7.1443    1.0000 </r>
       <r>    9.4795    0.0000 </r>
       <r>    9.5487    0.0000 </r>
       <r>   11.0233    0.0000 </r>
       <r>   11.0617    0.0000 </r>
       <r>   11.1265    0.0000 </r>
       <r>   13.9781    0.0000 </r>
      </set>
      <set comment="kpoint 5">
       <r>   -1.9293    1.0000 </r>
       <r>    0.4973    1.0000 </r>
       <r>    6.1771    1.0000 </r>
       <r>    6.2491    1.0000 </r>
       <r>    7.5210    1.0000 </r>
       <r>    7.6179    1.0000 </r>
       <r>    8.4459   -0.0000 </r>
       <r>    8.5160   -0.0000 </r>
       <r>   10.0520    0.0000 </r>
       <r>   10.1498    0.0000 </r>
       <r>   13.0508    0.0000 </r>
       <r>   14.4929    0.0000 </r>
      </set>
      <set comment="kpoint 6">
       <r>   -1.2630    1.0000 </r>
       <r>   -0.4532    1.0000 </r>
       <r>    6.7951    1.0000 </r>
       <r>    6.8665    1.0000 </r>
       <r>    7.5512    1.0000 </r>
       <r>    7.6221    1.0000 </r>
       <r>    8.0521   -0.0235 </r>
       <r>    8.1182   -0.0002 </r>
       <r>    9.2970   -0.0000 </r>
       <r>    9.3633    0.0000 </r>
       <r>   15.1639    0.0000 </r>
       <r>   15.1985    0.0000 </r>
      </set>
      <set comment="kpoint 7">
       <r>   -2.9721    1.0000 </r>
       <r>    4.1741    1.0000 </r>
       <r>    4.1741    1.0000 </r>
       <r>    5.2902    1.0000 </r>
       <r>    6.6480    1.0000 </r>
       <r>    7.5769    1.0000 </r>
       <r>    7.5769    1.0000 </r>
       <r>   11.0171    0.0000 </r>
       <r>   12.0963    0.0000 </r>
       <r>   12.0963    0.0000 </r>
       <r>   13.2546    0.0000 </r>
       <r>   13.2546    0.0000 </r>
      </set>
      <set comment="kpoint 8">
       <r>   -2.7480    1.0000 </r>
       <r>    2.8685    1.0000 </r>
       <r>    4.3853    1.0000 </r>
       <r>    5.4955    1.0000 </r>
       <r>    6.8604    1.0000 </r>
       <r>    7.7852    1.0000 </r>
       <r>    9.2694   -0.0000 </r>
       <r>    9.7697    0.0000 </r>
       <r>   10.7888    0.0000 </r>
       <r>   12.2543    0.0000 </r>
       <r>   12.3040    0.0000 </r>
       <r>   13.0384    0.0000 </r>
      </set>
      <set comment="kpoint 9">
       <r>   -2.3753    1.0000 </r>
       <r>    1.6560    1.0000 </r>
       <r>    4.7367    1.0000 </r>
       <r>    5.8379    1.0000 </r>
       <r>    7.1996    1.0000 </r>
       <r>    8.1259   -0.0001 </r>
       <r>    8.6285   -0.0000 </r>
       <r>    9.6176    0.0000 </r>
       <r>   11.1244    0.0000 </r>
       <r>   11.2015    0.0000 </r>
       <r>   12.0039    0.0000 </r>
       <r>   12.6497    0.0000 </r>
      </set>
      <set comment="kpoint 10">
       <r>   -1.8551    1.0000 </r>
       <r>    0.5702    1.0000 </r>
       <r>    5.2271    1.0000 </r>
       <r>    6.3177    1.0000 </r>
       <r>    7.3849    1.0000 </r>
       <r>    7.8997    1.0295 </r>
       <r>    8.5725   -0.0000 </r>
       <r>    8.5849   -0.0000 </r>
       <r>   10.2469    0.0000 </r>
       <r>   11.0257    0.0000 </r>
       <r>   13.0975    0.0000 </r>
       <r>   13.1327    0.0000 </r>
      </set>
      <set comment="kpoint 11">
       <r>   -1.1892    1.0000 </r>
       <r>   -0.3798    1.0000 </r>
       <r>    5.8540    1.0000 </r>
       <r>    6.6092    1.0000 </r>
       <r>    6.9352    1.0000 </r>
       <r>    7.6908    1.0000 </r>
       <r>    8.3738   -0.0000 </r>
       <r>    8.8653   -0.0000 </r>
       <r>    9.6900    0.0000 </r>
       <r>   10.1810    0.0000 </r>
       <r>   13.7519    0.0000 </r>
       <r>   14.5054    0.0000 </r>
      </set>
      <set comment="kpoint 12">
       <r>   -2.5243    1.0000 </r>
       <r>    3.0830    1.0000 </r>
       <r>    3.0830    1.0000 </r>
       <r>    5.7009    1.0000 </r>
       <r>    7.0559    1.0000 </r>
       <r>    8.5494   -0.0000 </r>
       <r>    9.4682    0.0000 </r>
       <r>    9.4682    0.0000 </r>
       <r>   10.9959    0.0000 </r>
       <r>   10.9959    0.0000 </r>
       <r>   12.4628    0.0000 </r>
       <r>   12.4628    0.0000 </r>
      </set>
      <set comment="kpoint 13">
       <r>   -2.1521    1.0000 </r>
       <r>    1.8727    1.0000 </r>
       <r>    3.4398    1.0000 </r>
       <r>    6.0435    1.0000 </r>
       <r>    7.1217    1.0000 </r>
       <r>    7.6803    1.0000 </r>
       <r>    9.7779    0.0000 </r>
       <r>    9.8243    0.0000 </r>
       <r>   11.2979    0.0000 </r>
       <r>   11.3407    0.0000 </r>
       <r>   11.4393    0.0000 </r>
       <r>   12.8229    0.0000 </r>
      </set>
      <set comment="kpoint 14">
       <r>   -1.6328    1.0000 </r>
       <r>    0.7887    1.0000 </r>
       <r>    3.9378    1.0000 </r>
       <r>    6.2426    1.0000 </r>
       <r>    6.5234    1.0000 </r>
       <r>    8.0154   -0.0029 </r>
       <r>    8.7913   -0.0000 </r>
       <r>    9.9739    0.0000 </r>
       <r>   10.7294    0.0000 </r>
       <r>   11.8231    0.0000 </r>
       <r>   12.6262    0.0000 </r>
       <r>   13.0005    0.0000 </r>
      </set>
      <set comment="kpoint 15">
       <r>   -0.9679    1.0000 </r>
       <r>   -0.1597    1.0000 </r>
       <r>    4.5748    1.0000 </r>
       <r>    5.3471    1.0000 </r>
       <r>    7.1412    1.0000 </r>
       <r>    7.8970    1.0271 </r>
       <r>    8.6287   -0.0000 </r>
       <r>    9.3594    0.0000 </r>
       <r>   11.0690    0.0000 </r>
       <r>   11.7775    0.0000 </r>
       <r>   12.4426    0.0000 </r>
       <r>   13.1984    0.0000 </r>
      </set>
      <set comment="kpoint 16">
       <r>   -1.7810    1.0000 </r>
       <r>    2.2333    1.0000 </r>
       <r>    2.2333    1.0000 </r>
       <r>    6.1122    1.0000 </r>
       <r>    6.3863    1.0000 </r>
       <r>    7.8803    1.0128 </r>
       <r>   10.1688    0.0000 </r>
       <r>   10.1688    0.0000 </r>
       <r>   11.3622    0.0000 </r>
       <r>   11.3622    0.0000 </r>
       <r>   12.0461    0.0000 </r>
       <r>   12.0461    0.0000 </r>
      </set>
      <set comment="kpoint 17">
       <r>   -1.2630    1.0000 </r>
       <r>    1.1522    1.0000 </r>
       <r>    2.7365    1.0000 </r>
       <r>    5.0781    1.0000 </r>
       <r>    6.8665    1.0000 </r>
       <r>    8.3642   -0.0000 </r>
       <r>    9.1354   -0.0000 </r>
       <r>   10.6132    0.0000 </r>
       <r>   10.6510    0.0000 </r>
       <r>   12.1052    0.0000 </r>
       <r>   12.2773    0.0000 </r>
       <r>   12.9213    0.0000 </r>
      </set>
      <set comment="kpoint 18">
       <r>   -0.5998    1.0000 </r>
       <r>    0.2063    1.0000 </r>
       <r>    3.3806    1.0000 </r>
       <r>    4.1628    1.0000 </r>
       <r>    7.4846    1.0000 </r>
       <r>    8.2408   -0.0000 </r>
       <r>    8.9952   -0.0000 </r>
       <r>    9.7543    0.0000 </r>
       <r>   11.2707    0.0000 </r>
       <r>   12.0277    0.0000 </r>
       <r>   12.7459    0.0000 </r>
       <r>   12.8498    0.0000 </r>
      </set>
      <set comment="kpoint 19">
       <r>   -0.7469    1.0000 </r>
       <r>    1.6596    1.0000 </r>
       <r>    1.6596    1.0000 </r>
       <r>    4.0238    1.0000 </r>
       <r>    7.3472    1.0000 </r>
       <r>    8.8608   -0.0000 </r>
       <r>    9.6173    0.0000 </r>
       <r>    9.6173    0.0000 </r>
       <r>   11.1378    0.0000 </r>
       <r>   11.1378    0.0000 </r>
       <r>   11.8893    0.0000 </r>
       <r>   13.3805    0.0000 </r>
      </set>
      <set comment="kpoint 20">
       <r>   -0.0861    1.0000 </r>
       <r>    0.7171    1.0000 </r>
       <r>    2.3091    1.0000 </r>
       <r>    3.0984    1.0000 </r>
       <r>    7.9656    0.6165 </r>
       <r>    8.7223   -0.0000 </r>
       <r>    9.4948    0.0000 </r>
       <r>   10.2370    0.0000 </r>
       <r>   10.2581    0.0000 </r>
       <r>   10.9944    0.0000 </r>
       <r>   11.7674    0.0000 </r>
       <r>   12.5166    0.0000 </r>
      </set>
      <set comment="kpoint 21">
       <r>    0.5716    1.0000 </r>
       <r>    1.3711    1.0000 </r>
       <r>    1.3711    1.0000 </r>
       <r>    2.1660    1.0000 </r>
       <r>    8.5846   -0.0000 </r>
       <r>    9.3416    0.0000 </r>
       <r>    9.3416    0.0000 </r>
       <r>   10.0990    0.0000 </r>
       <r>   10.1276    0.0000 </r>
       <r>   10.8884    0.0000 </r>
       <r>   10.8884    0.0000 </r>
       <r>   11.6440    0.0000 </r>
      </set>
      <set comment="kpoint 22">
       <r>   -3.0462    1.0000 </r>
       <r>    4.1724    1.0000 </r>
       <r>    5.1496    1.0000 </r>
       <r>    5.1496    1.0000 </r>
       <r>    6.4737    1.0000 </r>
       <r>    6.4737    1.0000 </r>
       <r>    7.6157    1.0000 </r>
       <r>   12.0269    0.0000 </r>
       <r>   12.0269    0.0000 </r>
       <r>   13.1497    0.0000 </r>
       <r>   13.1497    0.0000 </r>
       <r>   13.3315    0.0000 </r>
      </set>
      <set comment="kpoint 23">
       <r>   -2.9714    1.0000 </r>
       <r>    4.1748    1.0000 </r>
       <r>    4.2429    1.0000 </r>
       <r>    5.2180    1.0000 </r>
       <r>    6.5455    1.0000 </r>
       <r>    7.5776    1.0000 </r>
       <r>    7.6855    1.0000 </r>
       <r>   11.0825    0.0000 </r>
       <r>   12.0302    0.0000 </r>
       <r>   12.0962    0.0000 </r>
       <r>   13.1472    0.0000 </r>
       <r>   13.2151    0.0000 </r>
      </set>
      <set comment="kpoint 24">
       <r>   -2.7473    1.0000 </r>
       <r>    2.8692    1.0000 </r>
       <r>    4.4539    1.0000 </r>
       <r>    5.4236    1.0000 </r>
       <r>    6.7587    1.0000 </r>
       <r>    7.8931    1.0235 </r>
       <r>    9.2701   -0.0000 </r>
       <r>    9.8344    0.0000 </r>
       <r>   10.7214    0.0000 </r>
       <r>   12.1496    0.0000 </r>
       <r>   12.3042    0.0000 </r>
       <r>   13.1476    0.0000 </r>
      </set>
      <set comment="kpoint 25">
       <r>   -2.3745    1.0000 </r>
       <r>    1.6567    1.0000 </r>
       <r>    4.8050    1.0000 </r>
       <r>    5.7663    1.0000 </r>
       <r>    7.1019    1.0000 </r>
       <r>    8.2316   -0.0000 </r>
       <r>    8.6902   -0.0000 </r>
       <r>    9.5491    0.0000 </r>
       <r>   11.1002    0.0000 </r>
       <r>   11.1249    0.0000 </r>
       <r>   12.1126    0.0000 </r>
       <r>   12.6504    0.0000 </r>
      </set>
      <set comment="kpoint 26">
       <r>   -1.8544    1.0000 </r>
       <r>    0.5709    1.0000 </r>
       <r>    5.2949    1.0000 </r>
       <r>    6.2465    1.0000 </r>
       <r>    7.3864    1.0000 </r>
       <r>    7.8641    1.0044 </r>
       <r>    8.5155   -0.0000 </r>
       <r>    8.6667   -0.0000 </r>
       <r>   10.1579    0.0000 </r>
       <r>   11.1327    0.0000 </r>
       <r>   13.0970    0.0000 </r>
       <r>   13.1341    0.0000 </r>
      </set>
      <set comment="kpoint 27">
       <r>   -1.1885    1.0000 </r>
       <r>   -0.3790    1.0000 </r>
       <r>    5.9210    1.0000 </r>
       <r>    6.6734    1.0000 </r>
       <r>    6.8645    1.0000 </r>
       <r>    7.6207    1.0000 </r>
       <r>    8.2829   -0.0000 </r>
       <r>    8.8452   -0.0000 </r>
       <r>    9.7162    0.0000 </r>
       <r>   10.2807    0.0000 </r>
       <r>   13.7541    0.0000 </r>
       <r>   14.5301    0.0000 </r>
      </set>
      <set comment="kpoint 28">
       <r>   -2.8966    1.0000 </r>
       <r>    4.2452    1.0000 </r>
       <r>    4.2452    1.0000 </r>
       <r>    4.3132    1.0000 </r>
       <r>    7.6467    1.0000 </r>
       <r>    7.6467    1.0000 </r>
       <r>    7.7543    1.0000 </r>
       <r>   11.0878    0.0000 </r>
       <r>   11.1524    0.0000 </r>
       <r>   11.1524    0.0000 </r>
       <r>   13.7800    0.0000 </r>
       <r>   13.8702    0.0000 </r>
      </set>
      <set comment="kpoint 29">
       <r>   -2.6727    1.0000 </r>
       <r>    2.9407    1.0000 </r>
       <r>    4.4563    1.0000 </r>
       <r>    4.5241    1.0000 </r>
       <r>    7.8507    1.0015 </r>
       <r>    7.9567    0.7548 </r>
       <r>    9.3347   -0.0000 </r>
       <r>    9.8446    0.0000 </r>
       <r>    9.9077    0.0000 </r>
       <r>   11.3635    0.0000 </r>
       <r>   13.1060    0.0000 </r>
       <r>   13.2144    0.0000 </r>
      </set>
      <set comment="kpoint 30">
       <r>   -2.3001    1.0000 </r>
       <r>    1.7290    1.0000 </r>
       <r>    4.8073    1.0000 </r>
       <r>    4.8749    1.0000 </r>
       <r>    8.1490   -0.0000 </r>
       <r>    8.2307   -0.0000 </r>
       <r>    8.7585   -0.0000 </r>
       <r>    8.7984   -0.0000 </r>
       <r>   11.1602    0.0000 </r>
       <r>   11.7387    0.0000 </r>
       <r>   12.0750    0.0000 </r>
       <r>   12.1826    0.0000 </r>
      </set>
      <set comment="kpoint 31">
       <r>   -1.7802    1.0000 </r>
       <r>    0.6438    1.0000 </r>
       <r>    5.2966    1.0000 </r>
       <r>    5.3635    1.0000 </r>
       <r>    7.5903    1.0000 </r>
       <r>    7.6510    1.0000 </r>
       <r>    8.7400   -0.0000 </r>
       <r>    8.8393   -0.0000 </r>
       <r>   11.1048    0.0000 </r>
       <r>   11.2092    0.0000 </r>
       <r>   12.1545    0.0000 </r>
       <r>   13.2095    0.0000 </r>
      </set>
      <set comment="kpoint 32">
       <r>   -1.1147    1.0000 </r>
       <r>   -0.3056    1.0000 </r>
       <r>    5.9156    1.0000 </r>
       <r>    5.9793    1.0000 </r>
       <r>    6.7165    1.0000 </r>
       <r>    6.7792    1.0000 </r>
       <r>    9.2784   -0.0000 </r>
       <r>    9.3578    0.0000 </r>
       <r>   10.3154    0.0000 </r>
       <r>   10.3955    0.0000 </r>
       <r>   12.7838    0.0000 </r>
       <r>   13.5372    0.0000 </r>
      </set>
      <set comment="kpoint 33">
       <r>   -2.4490    1.0000 </r>
       <r>    3.1551    1.0000 </r>
       <r>    3.1551    1.0000 </r>
       <r>    4.7345    1.0000 </r>
       <r>    8.0901   -0.0022 </r>
       <r>    8.6821   -0.0000 </r>
       <r>    9.4993    0.0000 </r>
       <r>    9.4993    0.0000 </r>
       <r>   10.1535    0.0000 </r>
       <r>   10.1535    0.0000 </r>
       <r>   13.4150    0.0000 </r>
       <r>   13.4150    0.0000 </r>
      </set>
      <set comment="kpoint 34">
       <r>   -2.0771    1.0000 </r>
       <r>    1.9456    1.0000 </r>
       <r>    3.5117    1.0000 </r>
       <r>    5.0834    1.0000 </r>
       <r>    7.3646    1.0000 </r>
       <r>    8.5978   -0.0000 </r>
       <r>    8.8974   -0.0000 </r>
       <r>    9.9318    0.0000 </r>
       <r>   10.4088    0.0000 </r>
       <r>   11.4380    0.0000 </r>
       <r>   12.3950    0.0000 </r>
       <r>   13.6128    0.0000 </r>
      </set>
      <set comment="kpoint 35">
       <r>   -1.5580    1.0000 </r>
       <r>    0.8622    1.0000 </r>
       <r>    4.0092    1.0000 </r>
       <r>    5.5604    1.0000 </r>
       <r>    6.3577    1.0000 </r>
       <r>    7.8828    1.0146 </r>
       <r>    9.0618   -0.0000 </r>
       <r>   10.3409    0.0000 </r>
       <r>   10.9112    0.0000 </r>
       <r>   11.4643    0.0000 </r>
       <r>   12.6968    0.0000 </r>
       <r>   13.1786    0.0000 </r>
      </set>
      <set comment="kpoint 36">
       <r>   -0.8935    1.0000 </r>
       <r>   -0.0857    1.0000 </r>
       <r>    4.6448    1.0000 </r>
       <r>    5.4068    1.0000 </r>
       <r>    6.2334    1.0000 </r>
       <r>    6.9862    1.0000 </r>
       <r>    9.6684    0.0000 </r>
       <r>   10.3352    0.0000 </r>
       <r>   11.2021    0.0000 </r>
       <r>   11.5352    0.0000 </r>
       <r>   11.8551    0.0000 </r>
       <r>   12.2912    0.0000 </r>
      </set>
      <set comment="kpoint 37">
       <r>   -1.7061    1.0000 </r>
       <r>    2.3060    1.0000 </r>
       <r>    2.3060    1.0000 </r>
       <r>    5.4206    1.0000 </r>
       <r>    6.2284    1.0000 </r>
       <r>    8.9306   -0.0000 </r>
       <r>    9.2662   -0.0000 </r>
       <r>    9.2662   -0.0000 </r>
       <r>   11.7173    0.0000 </r>
       <r>   11.7173    0.0000 </r>
       <r>   12.7735    0.0000 </r>
       <r>   12.7735    0.0000 </r>
      </set>
      <set comment="kpoint 38">
       <r>   -1.1884    1.0000 </r>
       <r>    1.2255    1.0000 </r>
       <r>    2.8089    1.0000 </r>
       <r>    5.1379    1.0000 </r>
       <r>    5.9554    1.0000 </r>
       <r>    8.2354   -0.0000 </r>
       <r>    9.4159    0.0000 </r>
       <r>    9.7562    0.0000 </r>
       <r>   11.5807    0.0000 </r>
       <r>   12.0308    0.0000 </r>
       <r>   12.4008    0.0000 </r>
       <r>   13.0737    0.0000 </r>
      </set>
      <set comment="kpoint 39">
       <r>   -0.5256    1.0000 </r>
       <r>    0.2801    1.0000 </r>
       <r>    3.4524    1.0000 </r>
       <r>    4.2332    1.0000 </r>
       <r>    6.5709    1.0000 </r>
       <r>    7.3349    1.0000 </r>
       <r>   10.0368    0.0000 </r>
       <r>   10.3802    0.0000 </r>
       <r>   10.7798    0.0000 </r>
       <r>   11.1390    0.0000 </r>
       <r>   12.9252    0.0000 </r>
       <r>   13.6298    0.0000 </r>
      </set>
      <set comment="kpoint 40">
       <r>   -0.6726    1.0000 </r>
       <r>    1.7326    1.0000 </r>
       <r>    1.7326    1.0000 </r>
       <r>    4.0943    1.0000 </r>
       <r>    6.4318    1.0000 </r>
       <r>    8.7237   -0.0000 </r>
       <r>    8.7237   -0.0000 </r>
       <r>    9.9062    0.0000 </r>
       <r>   11.0052    0.0000 </r>
       <r>   12.1477    0.0000 </r>
       <r>   12.1477    0.0000 </r>
       <r>   14.2681    0.0000 </r>
      </set>
      <set comment="kpoint 41">
       <r>   -0.0121    1.0000 </r>
       <r>    0.7906    1.0000 </r>
       <r>    2.3818    1.0000 </r>
       <r>    3.1705    1.0000 </r>
       <r>    7.0579    1.0000 </r>
       <r>    7.8229    1.0001 </r>
       <r>    9.3488    0.0000 </r>
       <r>   10.1099    0.0000 </r>
       <r>   10.5301    0.0000 </r>
       <r>   11.2818    0.0000 </r>
       <r>   12.7746    0.0000 </r>
       <r>   13.5180    0.0000 </r>
      </set>
      <set comment="kpoint 42">
       <r>    0.6453    1.0000 </r>
       <r>    1.4443    1.0000 </r>
       <r>    1.4443    1.0000 </r>
       <r>    2.2388    1.0000 </r>
       <r>    7.6847    1.0000 </r>
       <r>    8.4490   -0.0000 </r>
       <r>    8.4490   -0.0000 </r>
       <r>    9.2120   -0.0000 </r>
       <r>   11.1540    0.0000 </r>
       <r>   11.9050    0.0000 </r>
       <r>   11.9050    0.0000 </r>
       <r>   12.6527    0.0000 </r>
      </set>
      <set comment="kpoint 43">
       <r>   -2.8197    1.0000 </r>
       <r>    2.8546    1.0000 </r>
       <r>    5.3571    1.0000 </r>
       <r>    5.3571    1.0000 </r>
       <r>    6.6914    1.0000 </r>
       <r>    6.6914    1.0000 </r>
       <r>    9.3253   -0.0000 </r>
       <r>   10.7065    0.0000 </r>
       <r>   10.7065    0.0000 </r>
       <r>   12.1362    0.0000 </r>
       <r>   12.1362    0.0000 </r>
       <r>   13.5553    0.0000 </r>
      </set>
      <set comment="kpoint 44">
       <r>   -2.7450    1.0000 </r>
       <r>    2.9261    1.0000 </r>
       <r>    4.3881    1.0000 </r>
       <r>    5.4256    1.0000 </r>
       <r>    6.7608    1.0000 </r>
       <r>    7.7879    1.0000 </r>
       <r>    9.3922    0.0000 </r>
       <r>    9.8239    0.0000 </r>
       <r>   10.7756    0.0000 </r>
       <r>   12.2052    0.0000 </r>
       <r>   12.2401    0.0000 </r>
       <r>   13.0983    0.0000 </r>
      </set>
      <set comment="kpoint 45">
       <r>   -2.5213    1.0000 </r>
       <r>    3.0859    1.0000 </r>
       <r>    3.1405    1.0000 </r>
       <r>    5.6312    1.0000 </r>
       <r>    6.9599    1.0000 </r>
       <r>    8.6001   -0.0000 </r>
       <r>    9.4706    0.0000 </r>
       <r>    9.5891    0.0000 </r>
       <r>   10.9306    0.0000 </r>
       <r>   10.9828    0.0000 </r>
       <r>   12.3616    0.0000 </r>
       <r>   12.4139    0.0000 </r>
      </set>
      <set comment="kpoint 46">
       <r>   -2.1492    1.0000 </r>
       <r>    1.8756    1.0000 </r>
       <r>    3.4972    1.0000 </r>
       <r>    5.9740    1.0000 </r>
       <r>    7.1085    1.0000 </r>
       <r>    7.6487    1.0000 </r>
       <r>    9.7581    0.0000 </r>
       <r>    9.8888    0.0000 </r>
       <r>   11.2986    0.0000 </r>
       <r>   11.3280    0.0000 </r>
       <r>   11.3493    0.0000 </r>
       <r>   12.7753    0.0000 </r>
      </set>
      <set comment="kpoint 47">
       <r>   -1.6298    1.0000 </r>
       <r>    0.7916    1.0000 </r>
       <r>    3.9948    1.0000 </r>
       <r>    6.2951    1.0000 </r>
       <r>    6.4544    1.0000 </r>
       <r>    7.9188    1.0314 </r>
       <r>    8.7242   -0.0000 </r>
       <r>    9.9674    0.0000 </r>
       <r>   10.7575    0.0000 </r>
       <r>   11.8110    0.0000 </r>
       <r>   12.7486    0.0000 </r>
       <r>   12.9698    0.0000 </r>
      </set>
      <set comment="kpoint 48">
       <r>   -0.9649    1.0000 </r>
       <r>   -0.1568    1.0000 </r>
       <r>    4.6313    1.0000 </r>
       <r>    5.4027    1.0000 </r>
       <r>    7.0727    1.0000 </r>
       <r>    7.8291    1.0002 </r>
       <r>    8.5307   -0.0000 </r>
       <r>    9.2680   -0.0000 </r>
       <r>   11.1825    0.0000 </r>
       <r>   11.8984    0.0000 </r>
       <r>   12.4311    0.0000 </r>
       <r>   13.1878    0.0000 </r>
      </set>
      <set comment="kpoint 49">
       <r>   -2.6704    1.0000 </r>
       <r>    2.9976    1.0000 </r>
       <r>    4.4584    1.0000 </r>
       <r>    4.4584    1.0000 </r>
       <r>    7.8526    1.0018 </r>
       <r>    7.8526    1.0018 </r>
       <r>    9.4558    0.0000 </r>
       <r>    9.8973    0.0000 </r>
       <r>    9.8973    0.0000 </r>
       <r>   11.3019    0.0000 </r>
       <r>   13.1652    0.0000 </r>
       <r>   13.1652    0.0000 </r>
      </set>
      <set comment="kpoint 50">
       <r>   -2.4468    1.0000 </r>
       <r>    3.1573    1.0000 </r>
       <r>    3.2119    1.0000 </r>
       <r>    4.6689    1.0000 </r>
       <r>    8.0081    0.0366 </r>
       <r>    8.7128   -0.0000 </r>
       <r>    9.4999    0.0000 </r>
       <r>    9.5989    0.0000 </r>
       <r>   10.1129    0.0000 </r>
       <r>   10.1443    0.0000 </r>
       <r>   13.3091    0.0000 </r>
       <r>   13.3659    0.0000 </r>
      </set>
      <set comment="kpoint 51">
       <r>   -2.0748    1.0000 </r>
       <r>    1.9478    1.0000 </r>
       <r>    3.5683    1.0000 </r>
       <r>    5.0183    1.0000 </r>
       <r>    7.4130    1.0000 </r>
       <r>    8.4984   -0.0000 </r>
       <r>    8.8394   -0.0000 </r>
       <r>   10.0461    0.0000 </r>
       <r>   10.3986    0.0000 </r>
       <r>   11.4396    0.0000 </r>
       <r>   12.2915    0.0000 </r>
       <r>   13.7102    0.0000 </r>
      </set>
      <set comment="kpoint 52">
       <r>   -1.5558    1.0000 </r>
       <r>    0.8644    1.0000 </r>
       <r>    4.0654    1.0000 </r>
       <r>    5.4982    1.0000 </r>
       <r>    6.4093    1.0000 </r>
       <r>    7.8199    1.0001 </r>
       <r>    8.9578   -0.0000 </r>
       <r>   10.4391    0.0000 </r>
       <r>   10.9009    0.0000 </r>
       <r>   11.3815    0.0000 </r>
       <r>   12.8180    0.0000 </r>
       <r>   13.1687    0.0000 </r>
      </set>
      <set comment="kpoint 53">
       <r>   -0.8913    1.0000 </r>
       <r>   -0.0835    1.0000 </r>
       <r>    4.7004    1.0000 </r>
       <r>    5.4587    1.0000 </r>
       <r>    6.1723    1.0000 </r>
       <r>    6.9225    1.0000 </r>
       <r>    9.5666    0.0000 </r>
       <r>   10.2597    0.0000 </r>
       <r>   11.2938    0.0000 </r>
       <r>   11.5249    0.0000 </r>
       <r>   11.9735    0.0000 </r>
       <r>   12.2812    0.0000 </r>
      </set>
      <set comment="kpoint 54">
       <r>   -2.2235    1.0000 </r>
       <r>    3.3713    1.0000 </r>
       <r>    3.3713    1.0000 </r>
       <r>    3.4258    1.0000 </r>
       <r>    8.7452   -0.0000 </r>
       <r>    8.7913   -0.0000 </r>
       <r>    8.7913   -0.0000 </r>
       <r>    9.8227    0.0000 </r>
       <r>    9.8227    0.0000 </r>
       <r>    9.9365    0.0000 </r>
       <r>   14.0922    0.0000 </r>
       <r>   14.3707    0.0000 </r>
      </set>
      <set comment="kpoint 55">
       <r>   -1.8522    1.0000 </r>
       <r>    2.1641    1.0000 </r>
       <r>    3.7270    1.0000 </r>
       <r>    3.7813    1.0000 </r>
       <r>    7.6013    1.0000 </r>
       <r>    7.6530    1.0000 </r>
       <r>    9.1669   -0.0000 </r>
       <r>   10.1439    0.0000 </r>
       <r>   10.2626    0.0000 </r>
       <r>   11.6440    0.0000 </r>
       <r>   12.9550    0.0000 </r>
       <r>   13.8243    0.0000 </r>
      </set>
      <set comment="kpoint 56">
       <r>   -1.3339    1.0000 </r>
       <r>    1.0825    1.0000 </r>
       <r>    4.2224    1.0000 </r>
       <r>    4.2762    1.0000 </r>
       <r>    6.5655    1.0000 </r>
       <r>    6.6181    1.0000 </r>
       <r>    9.6591    0.0000 </r>
       <r>   10.6123    0.0000 </r>
       <r>   10.7294    0.0000 </r>
       <r>   11.9357    0.0000 </r>
       <r>   12.9113    0.0000 </r>
       <r>   13.0284    0.0000 </r>
      </set>
      <set comment="kpoint 57">
       <r>   -0.6704    1.0000 </r>
       <r>    0.1361    1.0000 </r>
       <r>    4.8463    1.0000 </r>
       <r>    4.8970    1.0000 </r>
       <r>    5.6718    1.0000 </r>
       <r>    5.7220    1.0000 </r>
       <r>   10.2845    0.0000 </r>
       <r>   11.0441    0.0000 </r>
       <r>   11.1776    0.0000 </r>
       <r>   11.2728    0.0000 </r>
       <r>   12.1274    0.0000 </r>
       <r>   12.2226    0.0000 </r>
      </set>
      <set comment="kpoint 58">
       <r>   -1.4818    1.0000 </r>
       <r>    2.5239    1.0000 </r>
       <r>    2.5239    1.0000 </r>
       <r>    4.1345    1.0000 </r>
       <r>    6.4367    1.0000 </r>
       <r>    8.0087    0.0329 </r>
       <r>    8.0087    0.0329 </r>
       <r>   10.6099    0.0000 </r>
       <r>   11.8112    0.0000 </r>
       <r>   11.9770    0.0000 </r>
       <r>   11.9770    0.0000 </r>
       <r>   14.2679    0.0000 </r>
      </set>
      <set comment="kpoint 59">
       <r>   -0.9649    1.0000 </r>
       <r>    1.4453    1.0000 </r>
       <r>    3.0257    1.0000 </r>
       <r>    4.6156    1.0000 </r>
       <r>    5.4031    1.0000 </r>
       <r>    6.9692    1.0000 </r>
       <r>    8.4994   -0.0000 </r>
       <r>   10.7862    0.0000 </r>
       <r>   11.0899    0.0000 </r>
       <r>   12.4093    0.0000 </r>
       <r>   13.4012    0.0000 </r>
       <r>   13.9204    0.0000 </r>
      </set>
      <set comment="kpoint 60">
       <r>   -0.3031    1.0000 </r>
       <r>    0.5013    1.0000 </r>
       <r>    3.6671    1.0000 </r>
       <r>    4.4362    1.0000 </r>
       <r>    5.3005    1.0000 </r>
       <r>    6.0615    1.0000 </r>
       <r>    9.1269   -0.0000 </r>
       <r>    9.8899    0.0000 </r>
       <r>   11.6948    0.0000 </r>
       <r>   12.3751    0.0000 </r>
       <r>   13.1852    0.0000 </r>
       <r>   13.8400    0.0000 </r>
      </set>
      <set comment="kpoint 61">
       <r>   -0.4498    1.0000 </r>
       <r>    1.9516    1.0000 </r>
       <r>    1.9516    1.0000 </r>
       <r>    4.2979    1.0000 </r>
       <r>    5.1591    1.0000 </r>
       <r>    7.4602    1.0000 </r>
       <r>    7.4602    1.0000 </r>
       <r>    9.7562    0.0000 </r>
       <r>   11.5752    0.0000 </r>
       <r>   13.7281    0.0000 </r>
       <r>   13.7281    0.0000 </r>
       <r>   14.5052    0.0000 </r>
      </set>
      <set comment="kpoint 62">
       <r>    0.2096    1.0000 </r>
       <r>    1.0111    1.0000 </r>
       <r>    2.5995    1.0000 </r>
       <r>    3.3859    1.0000 </r>
       <r>    5.7809    1.0000 </r>
       <r>    6.5520    1.0000 </r>
       <r>    8.0896   -0.0023 </r>
       <r>    8.8559   -0.0000 </r>
       <r>   12.1881    0.0000 </r>
       <r>   12.9201    0.0000 </r>
       <r>   14.3798    0.0000 </r>
       <r>   15.0398    0.0000 </r>
      </set>
      <set comment="kpoint 63">
       <r>    0.8660    1.0000 </r>
       <r>    1.6638    1.0000 </r>
       <r>    1.6638    1.0000 </r>
       <r>    2.4568    1.0000 </r>
       <r>    6.4123    1.0000 </r>
       <r>    7.1831    1.0000 </r>
       <r>    7.1831    1.0000 </r>
       <r>    7.9521    0.8172 </r>
       <r>   12.8028    0.0000 </r>
       <r>   13.5384    0.0000 </r>
       <r>   13.5384    0.0000 </r>
       <r>   14.2720    0.0000 </r>
      </set>
      <set comment="kpoint 64">
       <r>   -2.4430    1.0000 </r>
       <r>    1.6300    1.0000 </r>
       <r>    5.7032    1.0000 </r>
       <r>    5.7032    1.0000 </r>
       <r>    7.0488    1.0000 </r>
       <r>    7.0488    1.0000 </r>
       <r>    9.5230    0.0000 </r>
       <r>    9.5230    0.0000 </r>
       <r>   11.0674    0.0000 </r>
       <r>   11.0674    0.0000 </r>
       <r>   11.2017    0.0000 </r>
       <r>   13.9275    0.0000 </r>
      </set>
      <set comment="kpoint 65">
       <r>   -2.3686    1.0000 </r>
       <r>    1.7023    1.0000 </r>
       <r>    4.7430    1.0000 </r>
       <r>    5.7717    1.0000 </r>
       <r>    7.1068    1.0000 </r>
       <r>    8.1315   -0.0000 </r>
       <r>    8.6689   -0.0000 </r>
       <r>    9.5920    0.0000 </r>
       <r>   11.1427    0.0000 </r>
       <r>   11.2632    0.0000 </r>
       <r>   12.0494    0.0000 </r>
       <r>   12.5896    0.0000 </r>
      </set>
      <set comment="kpoint 66">
       <r>   -2.1454    1.0000 </r>
       <r>    1.9189    1.0000 </r>
       <r>    3.4462    1.0000 </r>
       <r>    5.9775    1.0000 </r>
       <r>    7.1047    1.0000 </r>
       <r>    7.6447    1.0000 </r>
       <r>    9.7811    0.0000 </r>
       <r>    9.7989    0.0000 </r>
       <r>   11.2792    0.0000 </r>
       <r>   11.3827    0.0000 </r>
       <r>   11.4271    0.0000 </r>
       <r>   12.7338    0.0000 </r>
      </set>
      <set comment="kpoint 67">
       <r>   -1.7743    1.0000 </r>
       <r>    2.2398    1.0000 </r>
       <r>    2.2793    1.0000 </r>
       <r>    6.1536    1.0000 </r>
       <r>    6.3205    1.0000 </r>
       <r>    7.7865    1.0000 </r>
       <r>   10.1063    0.0000 </r>
       <r>   10.1437    0.0000 </r>
       <r>   11.3329    0.0000 </r>
       <r>   11.3594    0.0000 </r>
       <r>   12.0219    0.0000 </r>
       <r>   12.0901    0.0000 </r>
      </set>
      <set comment="kpoint 68">
       <r>   -1.2563    1.0000 </r>
       <r>    1.1587    1.0000 </r>
       <r>    2.7823    1.0000 </r>
       <r>    5.1225    1.0000 </r>
       <r>    6.8012    1.0000 </r>
       <r>    8.2677   -0.0000 </r>
       <r>    9.0721   -0.0000 </r>
       <r>   10.5244    0.0000 </r>
       <r>   10.6264    0.0000 </r>
       <r>   12.0470    0.0000 </r>
       <r>   12.4080    0.0000 </r>
       <r>   12.8989    0.0000 </r>
      </set>
      <set comment="kpoint 69">
       <r>   -0.5932    1.0000 </r>
       <r>    0.2129    1.0000 </r>
       <r>    3.4261    1.0000 </r>
       <r>    4.2079    1.0000 </r>
       <r>    7.4198    1.0000 </r>
       <r>    8.1766   -0.0000 </r>
       <r>    8.8985   -0.0000 </r>
       <r>    9.6589    0.0000 </r>
       <r>   11.2468    0.0000 </r>
       <r>   12.0045    0.0000 </r>
       <r>   12.6853    0.0000 </r>
       <r>   12.9875    0.0000 </r>
      </set>
      <set comment="kpoint 70">
       <r>   -2.2941    1.0000 </r>
       <r>    1.7745    1.0000 </r>
       <r>    4.8129    1.0000 </r>
       <r>    4.8129    1.0000 </r>
       <r>    8.1511   -0.0000 </r>
       <r>    8.1511   -0.0000 </r>
       <r>    8.7798   -0.0000 </r>
       <r>    8.7798   -0.0000 </r>
       <r>   11.2771    0.0000 </r>
       <r>   11.7016    0.0000 </r>
       <r>   12.1195    0.0000 </r>
       <r>   12.1195    0.0000 </r>
      </set>
      <set comment="kpoint 71">
       <r>   -2.0711    1.0000 </r>
       <r>    1.9911    1.0000 </r>
       <r>    3.5174    1.0000 </r>
       <r>    5.0218    1.0000 </r>
       <r>    7.4024    1.0000 </r>
       <r>    8.5012   -0.0000 </r>
       <r>    8.8762   -0.0000 </r>
       <r>    9.9359    0.0000 </r>
       <r>   10.3543    0.0000 </r>
       <r>   11.5707    0.0000 </r>
       <r>   12.3324    0.0000 </r>
       <r>   13.6504    0.0000 </r>
      </set>
      <set comment="kpoint 72">
       <r>   -1.7002    1.0000 </r>
       <r>    2.3118    1.0000 </r>
       <r>    2.3513    1.0000 </r>
       <r>    5.3615    1.0000 </r>
       <r>    6.2690    1.0000 </r>
       <r>    8.8292   -0.0000 </r>
       <r>    9.2074   -0.0000 </r>
       <r>    9.2445   -0.0000 </r>
       <r>   11.7178    0.0000 </r>
       <r>   11.8343    0.0000 </r>
       <r>   12.6922    0.0000 </r>
       <r>   12.7154    0.0000 </r>
      </set>
      <set comment="kpoint 73">
       <r>   -1.1825    1.0000 </r>
       <r>    1.2313    1.0000 </r>
       <r>    2.8540    1.0000 </r>
       <r>    5.1788    1.0000 </r>
       <r>    5.8972    1.0000 </r>
       <r>    8.1756   -0.0000 </r>
       <r>    9.3139   -0.0000 </r>
       <r>    9.7345    0.0000 </r>
       <r>   11.5074    0.0000 </r>
       <r>   12.0099    0.0000 </r>
       <r>   12.5105    0.0000 </r>
       <r>   13.0175    0.0000 </r>
      </set>
      <set comment="kpoint 74">
       <r>   -0.5197    1.0000 </r>
       <r>    0.2859    1.0000 </r>
       <r>    3.4972    1.0000 </r>
       <r>    4.2775    1.0000 </r>
       <r>    6.5103    1.0000 </r>
       <r>    7.2745    1.0000 </r>
       <r>    9.9354    0.0000 </r>
       <r>   10.3588    0.0000 </r>
       <r>   10.6811    0.0000 </r>
       <r>   11.1178    0.0000 </r>
       <r>   13.0605    0.0000 </r>
       <r>   13.6804    0.0000 </r>
      </set>
      <set comment="kpoint 75">
       <r>   -1.8484    1.0000 </r>
       <r>    2.2073    1.0000 </r>
       <r>    3.7306    1.0000 </r>
       <r>    3.7306    1.0000 </r>
       <r>    7.6419    1.0000 </r>
       <r>    7.6419    1.0000 </r>
       <r>    9.1190   -0.0000 </r>
       <r>   10.1471    0.0000 </r>
       <r>   10.1471    0.0000 </r>
       <r>   11.7798    0.0000 </r>
       <r>   12.9441    0.0000 </r>
       <r>   13.8636    0.0000 </r>
      </set>
      <set comment="kpoint 76">
       <r>   -1.4781    1.0000 </r>
       <r>    2.5275    1.0000 </r>
       <r>    2.5669    1.0000 </r>
       <r>    4.0841    1.0000 </r>
       <r>    6.4779    1.0000 </r>
       <r>    7.9598    0.7090 </r>
       <r>    7.9975    0.1312 </r>
       <r>   10.4935    0.0000 </r>
       <r>   11.8003    0.0000 </r>
       <r>   11.9799    0.0000 </r>
       <r>   12.1118    0.0000 </r>
       <r>   14.1561    0.0000 </r>
      </set>
      <set comment="kpoint 77">
       <r>   -0.9612    1.0000 </r>
       <r>    1.4489    1.0000 </r>
       <r>    3.0686    1.0000 </r>
       <r>    4.5677    1.0000 </r>
       <r>    5.4426    1.0000 </r>
       <r>    6.9198    1.0000 </r>
       <r>    8.4883   -0.0000 </r>
       <r>   10.7753    0.0000 </r>
       <r>   10.9739    0.0000 </r>
       <r>   12.5237    0.0000 </r>
       <r>   13.3074    0.0000 </r>
       <r>   13.9193    0.0000 </r>
      </set>
      <set comment="kpoint 78">
       <r>   -0.2994    1.0000 </r>
       <r>    0.5050    1.0000 </r>
       <r>    3.7095    1.0000 </r>
       <r>    4.4760    1.0000 </r>
       <r>    5.2529    1.0000 </r>
       <r>    6.0120    1.0000 </r>
       <r>    9.1158   -0.0000 </r>
       <r>    9.8789    0.0000 </r>
       <r>   11.5810    0.0000 </r>
       <r>   12.2821    0.0000 </r>
       <r>   13.2986    0.0000 </r>
       <r>   13.9735    0.0000 </r>
      </set>
      <set comment="kpoint 79">
       <r>   -1.1087    1.0000 </r>
       <r>    2.8861    1.0000 </r>
       <r>    2.8861    1.0000 </r>
       <r>    2.9254    1.0000 </r>
       <r>    6.7915    1.0000 </r>
       <r>    6.8296    1.0000 </r>
       <r>    6.8296    1.0000 </r>
       <r>   10.6509    0.0000 </r>
       <r>   12.3294    0.0000 </r>
       <r>   12.3294    0.0000 </r>
       <r>   12.4623    0.0000 </r>
       <r>   15.3194    0.0000 </r>
      </set>
      <set comment="kpoint 80">
       <r>   -0.5931    1.0000 </r>
       <r>    1.8108    1.0000 </r>
       <r>    3.3856    1.0000 </r>
       <r>    3.4246    1.0000 </r>
       <r>    5.7449    1.0000 </r>
       <r>    5.7831    1.0000 </r>
       <r>    7.3214    1.0000 </r>
       <r>    9.6203    0.0000 </r>
       <r>   12.7995    0.0000 </r>
       <r>   12.9308    0.0000 </r>
       <r>   14.2886    0.0000 </r>
       <r>   14.9429    0.0000 </r>
      </set>
      <set comment="kpoint 81">
       <r>    0.0670    1.0000 </r>
       <r>    0.8693    1.0000 </r>
       <r>    4.0157    1.0000 </r>
       <r>    4.0527    1.0000 </r>
       <r>    4.8413    1.0000 </r>
       <r>    4.8781    1.0000 </r>
       <r>    7.9518    0.8201 </r>
       <r>    8.7190   -0.0000 </r>
       <r>   13.3677    0.0000 </r>
       <r>   13.4801    0.0000 </r>
       <r>   14.2235    0.0000 </r>
       <r>   14.3353    0.0000 </r>
      </set>
      <set comment="kpoint 82">
       <r>   -0.0794    1.0000 </r>
       <r>    2.3156    1.0000 </r>
       <r>    2.3156    1.0000 </r>
       <r>    3.9113    1.0000 </r>
       <r>    4.7020    1.0000 </r>
       <r>    6.2751    1.0000 </r>
       <r>    6.2751    1.0000 </r>
       <r>    8.5846   -0.0000 </r>
       <r>   13.4124    0.0000 </r>
       <r>   14.7294    0.0000 </r>
       <r>   14.7294    0.0000 </r>
       <r>   15.5446    0.0000 </r>
      </set>
      <set comment="kpoint 83">
       <r>    0.5784    1.0000 </r>
       <r>    1.3778    1.0000 </r>
       <r>    2.9609    1.0000 </r>
       <r>    3.7363    1.0000 </r>
       <r>    4.5936    1.0000 </r>
       <r>    5.3614    1.0000 </r>
       <r>    6.9080    1.0000 </r>
       <r>    7.6789    1.0000 </r>
       <r>   14.0081    0.0000 </r>
       <r>   14.6848    0.0000 </r>
       <r>   15.4000    0.0000 </r>
       <r>   16.0146    0.0000 </r>
      </set>
      <set comment="kpoint 84">
       <r>    1.2331    1.0000 </r>
       <r>    2.0287    1.0000 </r>
       <r>    2.0287    1.0000 </r>
       <r>    2.8187    1.0000 </r>
       <r>    5.2203    1.0000 </r>
       <r>    5.9955    1.0000 </r>
       <r>    5.9955    1.0000 </r>
       <r>    6.7693    1.0000 </r>
       <r>   14.6117    0.0000 </r>
       <r>   15.3181    0.0000 </r>
       <r>   15.3181    0.0000 </r>
       <r>   16.0266    0.0000 </r>
      </set>
      <set comment="kpoint 85">
       <r>   -1.9174    1.0000 </r>
       <r>    0.5331    1.0000 </r>
       <r>    6.1880    1.0000 </r>
       <r>    6.1880    1.0000 </r>
       <r>    7.5304    1.0000 </r>
       <r>    7.5304    1.0000 </r>
       <r>    8.4793   -0.0000 </r>
       <r>    8.4793   -0.0000 </r>
       <r>   10.0827    0.0000 </r>
       <r>   10.0827    0.0000 </r>
       <r>   13.2087    0.0000 </r>
       <r>   14.4478    0.0000 </r>
      </set>
      <set comment="kpoint 86">
       <r>   -1.8432    1.0000 </r>
       <r>    0.6060    1.0000 </r>
       <r>    5.2382    1.0000 </r>
       <r>    6.2567    1.0000 </r>
       <r>    7.3728    1.0000 </r>
       <r>    7.8552    1.0022 </r>
       <r>    8.5482   -0.0000 </r>
       <r>    8.5791   -0.0000 </r>
       <r>   10.1824    0.0000 </r>
       <r>   11.0592    0.0000 </r>
       <r>   13.0777    0.0000 </r>
       <r>   13.2470    0.0000 </r>
      </set>
      <set comment="kpoint 87">
       <r>   -1.6209    1.0000 </r>
       <r>    0.8245    1.0000 </r>
       <r>    3.9491    1.0000 </r>
       <r>    6.2741    1.0000 </r>
       <r>    6.4626    1.0000 </r>
       <r>    7.9265    1.0151 </r>
       <r>    8.7549   -0.0000 </r>
       <r>    9.9427    0.0000 </r>
       <r>   10.7026    0.0000 </r>
       <r>   11.7668    0.0000 </r>
       <r>   12.6621    0.0000 </r>
       <r>   12.9809    0.0000 </r>
      </set>
      <set comment="kpoint 88">
       <r>   -1.2511    1.0000 </r>
       <r>    1.1879    1.0000 </r>
       <r>    2.7479    1.0000 </r>
       <r>    5.1121    1.0000 </r>
       <r>    6.8060    1.0000 </r>
       <r>    8.2726   -0.0000 </r>
       <r>    9.0993   -0.0000 </r>
       <r>   10.5470    0.0000 </r>
       <r>   10.5937    0.0000 </r>
       <r>   12.0188    0.0000 </r>
       <r>   12.2855    0.0000 </r>
       <r>   12.8887    0.0000 </r>
      </set>
      <set comment="kpoint 89">
       <r>   -0.7351    1.0000 </r>
       <r>    1.6712    1.0000 </r>
       <r>    1.6951    1.0000 </r>
       <r>    4.0584    1.0000 </r>
       <r>    7.2870    1.0000 </r>
       <r>    8.7685   -0.0000 </r>
       <r>    9.5592    0.0000 </r>
       <r>    9.5817    0.0000 </r>
       <r>   11.0463    0.0000 </r>
       <r>   11.0683    0.0000 </r>
       <r>   11.8558    0.0000 </r>
       <r>   13.3086    0.0000 </r>
      </set>
      <set comment="kpoint 90">
       <r>   -0.0744    1.0000 </r>
       <r>    0.7288    1.0000 </r>
       <r>    2.3444    1.0000 </r>
       <r>    3.1335    1.0000 </r>
       <r>    7.9061    1.0340 </r>
       <r>    8.6633   -0.0000 </r>
       <r>    9.4024    0.0000 </r>
       <r>   10.1657    0.0000 </r>
       <r>   10.2019    0.0000 </r>
       <r>   10.9600    0.0000 </r>
       <r>   11.6970    0.0000 </r>
       <r>   12.4455    0.0000 </r>
      </set>
      <set comment="kpoint 91">
       <r>   -1.7690    1.0000 </r>
       <r>    0.6789    1.0000 </r>
       <r>    5.3070    1.0000 </r>
       <r>    5.3070    1.0000 </r>
       <r>    7.6197    1.0000 </r>
       <r>    7.6197    1.0000 </r>
       <r>    8.7482   -0.0000 </r>
       <r>    8.7482   -0.0000 </r>
       <r>   11.1364    0.0000 </r>
       <r>   11.1364    0.0000 </r>
       <r>   12.1032    0.0000 </r>
       <r>   13.3630    0.0000 </r>
      </set>
      <set comment="kpoint 92">
       <r>   -1.5468    1.0000 </r>
       <r>    0.8972    1.0000 </r>
       <r>    4.0198    1.0000 </r>
       <r>    5.5059    1.0000 </r>
       <r>    6.3884    1.0000 </r>
       <r>    7.8504    1.0015 </r>
       <r>    8.9658   -0.0000 </r>
       <r>   10.3440    0.0000 </r>
       <r>   10.8576    0.0000 </r>
       <r>   11.3976    0.0000 </r>
       <r>   12.7318    0.0000 </r>
       <r>   13.1475    0.0000 </r>
      </set>
      <set comment="kpoint 93">
       <r>   -1.1773    1.0000 </r>
       <r>    1.2604    1.0000 </r>
       <r>    2.8196    1.0000 </r>
       <r>    5.1689    1.0000 </r>
       <r>    5.9016    1.0000 </r>
       <r>    8.2030   -0.0000 </r>
       <r>    9.3188   -0.0000 </r>
       <r>    9.7018    0.0000 </r>
       <r>   11.5185    0.0000 </r>
       <r>   11.9998    0.0000 </r>
       <r>   12.3998    0.0000 </r>
       <r>   12.9984    0.0000 </r>
      </set>
      <set comment="kpoint 94">
       <r>   -0.6615    1.0000 </r>
       <r>    1.7435    1.0000 </r>
       <r>    1.7674    1.0000 </r>
       <r>    4.1281    1.0000 </r>
       <r>    6.3758    1.0000 </r>
       <r>    8.6688   -0.0000 </r>
       <r>    8.6915   -0.0000 </r>
       <r>    9.8088    0.0000 </r>
       <r>   10.9738    0.0000 </r>
       <r>   12.0532    0.0000 </r>
       <r>   12.0746    0.0000 </r>
       <r>   14.2842    0.0000 </r>
      </set>
      <set comment="kpoint 95">
       <r>   -0.0011    1.0000 </r>
       <r>    0.8016    1.0000 </r>
       <r>    2.4164    1.0000 </r>
       <r>    3.2048    1.0000 </r>
       <r>    7.0021    1.0000 </r>
       <r>    7.7675    1.0000 </r>
       <r>    9.3168   -0.0000 </r>
       <r>   10.0783    0.0000 </r>
       <r>   10.4328    0.0000 </r>
       <r>   11.1850    0.0000 </r>
       <r>   12.7003    0.0000 </r>
       <r>   13.4434    0.0000 </r>
      </set>
      <set comment="kpoint 96">
       <r>   -1.3250    1.0000 </r>
       <r>    1.1153    1.0000 </r>
       <r>    4.2308    1.0000 </r>
       <r>    4.2308    1.0000 </r>
       <r>    6.5965    1.0000 </r>
       <r>    6.5965    1.0000 </r>
       <r>    9.6154    0.0000 </r>
       <r>   10.6197    0.0000 </r>
       <r>   10.6197    0.0000 </r>
       <r>   11.9147    0.0000 </r>
       <r>   12.9430    0.0000 </r>
       <r>   12.9430    0.0000 </r>
      </set>
      <set comment="kpoint 97">
       <r>   -0.9560    1.0000 </r>
       <r>    1.4779    1.0000 </r>
       <r>    3.0343    1.0000 </r>
       <r>    4.5723    1.0000 </r>
       <r>    5.4325    1.0000 </r>
       <r>    6.9476    1.0000 </r>
       <r>    8.4554   -0.0000 </r>
       <r>   10.7652    0.0000 </r>
       <r>   10.9786    0.0000 </r>
       <r>   12.4105    0.0000 </r>
       <r>   13.3224    0.0000 </r>
       <r>   14.0561    0.0000 </r>
      </set>
      <set comment="kpoint 98">
       <r>   -0.4410    1.0000 </r>
       <r>    1.9603    1.0000 </r>
       <r>    1.9841    1.0000 </r>
       <r>    4.3278    1.0000 </r>
       <r>    5.1159    1.0000 </r>
[...]
       <r>    0.2250    1.0000 </r>
       <r>    1.0345    1.0000 </r>
       <r>    2.6146    1.0000 </r>
       <r>    3.4086    1.0000 </r>
       <r>    5.7423    1.0000 </r>
       <r>    6.5213    1.0000 </r>
       <r>    8.0516   -0.0240 </r>
       <r>    8.8256   -0.0000 </r>
       <r>   12.0832    0.0000 </r>
       <r>   12.8241    0.0000 </r>
       <r>   14.2766    0.0000 </r>
       <r>   15.0160    0.0000 </r>
      </set>
      <set comment="kpoint 120">
       <r>    0.8813    1.0000 </r>
       <r>    1.6790    1.0000 </r>
       <r>    1.6870    1.0000 </r>
       <r>    2.4798    1.0000 </r>
       <r>    6.3738    1.0000 </r>
       <r>    7.1449    1.0000 </r>
       <r>    7.1525    1.0000 </r>
       <r>    7.9216    1.0270 </r>
       <r>   12.6979    0.0000 </r>
       <r>   13.4339    0.0000 </r>
       <r>   13.4417    0.0000 </r>
       <r>   14.1753    0.0000 </r>
      </set>
      <set comment="kpoint 121">
       <r>    0.0787    1.0000 </r>
       <r>    0.8890    1.0000 </r>
       <r>    4.0263    1.0000 </r>
       <r>    4.0263    1.0000 </r>
       <r>    4.8592    1.0000 </r>
       <r>    4.8592    1.0000 </r>
       <r>    7.9250    1.0195 </r>
       <r>    8.6999   -0.0000 </r>
       <r>   13.3710    0.0000 </r>
       <r>   13.3710    0.0000 </r>
       <r>   14.2332    0.0000 </r>
       <r>   14.2332    0.0000 </r>
      </set>
      <set comment="kpoint 122">
       <r>    0.5901    1.0000 </r>
       <r>    1.3975    1.0000 </r>
       <r>    2.9724    1.0000 </r>
       <r>    3.7546    1.0000 </r>
       <r>    4.5672    1.0000 </r>
       <r>    5.3419    1.0000 </r>
       <r>    6.8810    1.0000 </r>
       <r>    7.6596    1.0000 </r>
       <r>   13.8879    0.0000 </r>
       <r>   14.5812    0.0000 </r>
       <r>   15.4072    0.0000 </r>
       <r>   15.9607    0.0000 </r>
      </set>
      <set comment="kpoint 123">
       <r>    1.2447    1.0000 </r>
       <r>    2.0403    1.0000 </r>
       <r>    2.0482    1.0000 </r>
       <r>    2.8381    1.0000 </r>
       <r>    5.1930    1.0000 </r>
       <r>    5.9683    1.0000 </r>
       <r>    5.9761    1.0000 </r>
       <r>    6.7499    1.0000 </r>
       <r>   14.4913    0.0000 </r>
       <r>   15.1990    0.0000 </r>
       <r>   15.2077    0.0000 </r>
       <r>   15.9164    0.0000 </r>
      </set>
      <set comment="kpoint 124">
       <r>    1.0996    1.0000 </r>
       <r>    1.9040    1.0000 </r>
       <r>    3.4638    1.0000 </r>
       <r>    3.4638    1.0000 </r>
       <r>    4.2929    1.0000 </r>
       <r>    4.2929    1.0000 </r>
       <r>    5.8311    1.0000 </r>
       <r>    6.6136    1.0000 </r>
       <r>   15.7828    0.0000 </r>
       <r>   15.7828    0.0000 </r>
       <r>   16.4880    0.0000 </r>
       <r>   16.4880    0.0000 </r>
      </set>
      <set comment="kpoint 125">
       <r>    1.7519    1.0000 </r>
       <r>    2.5437    1.0000 </r>
       <r>    2.5516    1.0000 </r>
       <r>    3.3304    1.0000 </r>
       <r>    4.1424    1.0000 </r>
       <r>    4.9139    1.0000 </r>
       <r>    4.9217    1.0000 </r>
       <r>    5.6990    1.0000 </r>
       <r>   16.3745    0.0000 </r>
       <r>   17.0029    0.0000 </r>
       <r>   17.0172    0.0000 </r>
       <r>   17.7247    0.0000 </r>
      </set>
      <set comment="kpoint 126">
       <r>    2.4004    1.0000 </r>
       <r>    3.1810    1.0000 </r>
       <r>    3.1810    1.0000 </r>
       <r>    3.1886    1.0000 </r>
       <r>    3.9999    1.0000 </r>
       <r>    4.0075    1.0000 </r>
       <r>    4.0075    1.0000 </r>
       <r>    4.7808    1.0000 </r>
       <r>   18.2586    0.0000 </r>
       <r>   18.2595    0.0000 </r>
       <r>   18.4152    0.0000 </r>
       <r>   18.4279    0.0000 </r>
      </set>
     </set>
    </set>
   </array>
  </eigenvalues>
  <separator name="orbital magnetization" >
   <v name="MAGDIPOLOUT">      0.00000000      0.00000000      0.00000000</v>
  </separator>
  <dos>
   <i name="efermi">      7.97259771 </i>
   <total>
    <array>
     <dimension dim="1">gridpoints</dimension>
     <dimension dim="2">spin</dimension>
     <field>energy</field>
     <field>total</field>
     <field>integrated</field>
     <set>
      <set comment="spin 1">
       <r>    -4.1992     0.0000     0.0000 </r>
       <r>    -4.1202     0.0000     0.0000 </r>
       <r>    -4.0412     0.0000     0.0000 </r>
       <r>    -3.9622     0.0000     0.0000 </r>
       <r>    -3.8832     0.0000     0.0000 </r>
       <r>    -3.8042     0.0000     0.0000 </r>
       <r>    -3.7251     0.0000     0.0000 </r>
       <r>    -3.6461     0.0000     0.0000 </r>
       <r>    -3.5671    -0.0000    -0.0000 </r>
       <r>    -3.4881    -0.0000    -0.0000 </r>
       <r>    -3.4091    -0.0000    -0.0000 </r>
       <r>    -3.3301    -0.0000    -0.0000 </r>
       <r>    -3.2510    -0.0000    -0.0000 </r>
       <r>    -3.1720    -0.0006    -0.0000 </r>
       <r>    -3.0930     0.0157     0.0012 </r>
       <r>    -3.0140     0.1109     0.0100 </r>
       <r>    -2.9350     0.2315     0.0283 </r>
       <r>    -2.8560     0.1587     0.0408 </r>
       <r>    -2.7770     0.1460     0.0523 </r>
       <r>    -2.6979     0.4863     0.0908 </r>
       <r>    -2.6189     0.4037     0.1227 </r>
       <r>    -2.5399     0.0316     0.1252 </r>
       <r>    -2.4609     0.3467     0.1525 </r>
       <r>    -2.3819     0.5788     0.1983 </r>
       <r>    -2.3029     0.4890     0.2369 </r>
       <r>    -2.2238     0.3289     0.2629 </r>
       <r>    -2.1448     0.3113     0.2875 </r>
       <r>    -2.0658     0.8167     0.3520 </r>
       <r>    -1.9868     0.3287     0.3780 </r>
       <r>    -1.9078     0.0469     0.3817 </r>
       <r>    -1.8288     0.8000     0.4449 </r>
       <r>    -1.7498     0.7725     0.5060 </r>
       <r>    -1.6707     0.5081     0.5461 </r>
       <r>    -1.5917     0.4912     0.5849 </r>
       <r>    -1.5127     0.9240     0.6579 </r>
       <r>    -1.4337     0.4448     0.6931 </r>
       <r>    -1.3547     0.0579     0.6976 </r>
       <r>    -1.2757     0.5110     0.7380 </r>
       <r>    -1.1966     0.8459     0.8049 </r>
       <r>    -1.1176     1.2393     0.9028 </r>
       <r>    -1.0386     0.3303     0.9289 </r>
       <r>    -0.9596     0.6997     0.9842 </r>
       <r>    -0.8806     1.2654     1.0842 </r>
       <r>    -0.8016     0.3417     1.1112 </r>
       <r>    -0.7226     0.1346     1.1218 </r>
       <r>    -0.6435     0.8148     1.1862 </r>
       <r>    -0.5645     0.9869     1.2642 </r>
       <r>    -0.4855     0.9649     1.3404 </r>
       <r>    -0.4065     0.6339     1.3905 </r>
       <r>    -0.3275     0.5636     1.4350 </r>
       <r>    -0.2485     1.2651     1.5350 </r>
       <r>    -0.1694     0.0688     1.5404 </r>
       <r>    -0.0904     0.8884     1.6106 </r>
       <r>    -0.0114     1.6869     1.7439 </r>
       <r>     0.0676     0.7604     1.8040 </r>
       <r>     0.1466     0.4571     1.8401 </r>
       <r>     0.2256     1.0809     1.9255 </r>
       <r>     0.3046     1.1991     2.0203 </r>
       <r>     0.3837     0.2442     2.0396 </r>
       <r>     0.4627     0.1190     2.0490 </r>
       <r>     0.5417     0.9847     2.1268 </r>
       <r>     0.6207     1.6591     2.2579 </r>
       <r>     0.6997     0.9403     2.3322 </r>
       <r>     0.7787     0.6606     2.3844 </r>
       <r>     0.8578     1.6234     2.5126 </r>
       <r>     0.9368     1.3728     2.6211 </r>
       <r>     1.0158     0.3234     2.6467 </r>
       <r>     1.0948     1.0424     2.7290 </r>
       <r>     1.1738     0.6966     2.7841 </r>
       <r>     1.2528     1.1552     2.8753 </r>
       <r>     1.3318     0.3932     2.9064 </r>
       <r>     1.4109     1.1880     3.0003 </r>
       <r>     1.4899     1.8567     3.1470 </r>
       <r>     1.5689     0.1795     3.1612 </r>
       <r>     1.6479     0.3467     3.1886 </r>
       <r>     1.7269     1.9833     3.3453 </r>
       <r>     1.8059     1.5671     3.4691 </r>
       <r>     1.8850     0.6509     3.5205 </r>
       <r>     1.9640     1.5135     3.6401 </r>
       <r>     2.0430     1.4339     3.7534 </r>
       <r>     2.1220     0.3728     3.7829 </r>
       <r>     2.2010     0.5136     3.8235 </r>
       <r>     2.2800     0.9859     3.9014 </r>
       <r>     2.3590     2.1883     4.0743 </r>
       <r>     2.4381     1.2271     4.1712 </r>
       <r>     2.5171     0.7818     4.2330 </r>
       <r>     2.5961     1.7443     4.3708 </r>
       <r>     2.6751     0.7001     4.4262 </r>
       <r>     2.7541     0.1666     4.4393 </r>
       <r>     2.8331     1.3843     4.5487 </r>
       <r>     2.9122     1.5297     4.6696 </r>
       <r>     2.9912     1.2837     4.7710 </r>
       <r>     3.0702     1.1460     4.8616 </r>
       <r>     3.1492     1.1748     4.9544 </r>
       <r>     3.2282     1.9872     5.1114 </r>
       <r>     3.3072     0.1642     5.1244 </r>
       <r>     3.3862     1.2393     5.2223 </r>
       <r>     3.4653     2.9803     5.4578 </r>
       <r>     3.5443     1.8419     5.6033 </r>
       <r>     3.6233     0.2563     5.6236 </r>
       <r>     3.7023     0.7224     5.6807 </r>
       <r>     3.7813     1.8044     5.8232 </r>
       <r>     3.8603     0.2871     5.8459 </r>
       <r>     3.9394     0.4646     5.8826 </r>
       <r>     4.0184     1.3402     5.9885 </r>
       <r>     4.0974     1.9035     6.1389 </r>
       <r>     4.1764     1.3592     6.2463 </r>
       <r>     4.2554     1.9460     6.4001 </r>
       <r>     4.3344     2.2617     6.5788 </r>
       <r>     4.4134     0.4386     6.6135 </r>
       <r>     4.4925     1.5486     6.7358 </r>
       <r>     4.5715     1.2534     6.8349 </r>
       <r>     4.6505     1.7693     6.9747 </r>
       <r>     4.7295     1.3343     7.0801 </r>
       <r>     4.8085     0.9917     7.1585 </r>
       <r>     4.8875     2.1464     7.3281 </r>
       <r>     4.9666     1.3005     7.4308 </r>
       <r>     5.0456     0.5223     7.4721 </r>
       <r>     5.1246     1.0432     7.5545 </r>
       <r>     5.2036     1.8650     7.7019 </r>
       <r>     5.2826     1.7365     7.8391 </r>
       <r>     5.3616     2.2008     8.0130 </r>
       <r>     5.4406     2.5123     8.2115 </r>
       <r>     5.5197     1.3865     8.3211 </r>
       <r>     5.5987     0.4171     8.3540 </r>
       <r>     5.6777     0.4797     8.3919 </r>
       <r>     5.7567     2.2363     8.5686 </r>
       <r>     5.8357     1.5536     8.6914 </r>
       <r>     5.9147     1.3147     8.7953 </r>
       <r>     5.9938     2.1562     8.9656 </r>
       <r>     6.0728     1.3102     9.0692 </r>
       <r>     6.1518     0.2971     9.0927 </r>
       <r>     6.2308     1.2416     9.1908 </r>
       <r>     6.3098     2.0927     9.3561 </r>
       <r>     6.3888     1.2594     9.4556 </r>
       <r>     6.4678     1.4354     9.5690 </r>
       <r>     6.5469     1.9913     9.7264 </r>
       <r>     6.6259     1.9134     9.8776 </r>
       <r>     6.7049     0.8362     9.9436 </r>
       <r>     6.7839     1.5706    10.0677 </r>
       <r>     6.8629     1.3828    10.1770 </r>
       <r>     6.9419     2.1720    10.3486 </r>
       <r>     7.0210     1.7098    10.4837 </r>
       <r>     7.1000     1.1597    10.5754 </r>
       <r>     7.1790     1.5138    10.6950 </r>
       <r>     7.2580     0.4369    10.7295 </r>
       <r>     7.3370     1.2417    10.8276 </r>
       <r>     7.4160     1.6974    10.9617 </r>
       <r>     7.4950     1.2910    11.0637 </r>
       <r>     7.5741     0.6504    11.1151 </r>
       <r>     7.6531     2.9351    11.3470 </r>
       <r>     7.7321     2.0840    11.5117 </r>
       <r>     7.8111     1.2735    11.6123 </r>
       <r>     7.8901     2.4685    11.8074 </r>
       <r>     7.9691     2.3493    11.9930 </r>
       <r>     8.0481     1.6142    12.1206 </r>
       <r>     8.1272     1.2384    12.2184 </r>
       <r>     8.2062     1.5158    12.3382 </r>
       <r>     8.2852     1.4104    12.4496 </r>
       <r>     8.3642     0.3601    12.4781 </r>
       <r>     8.4432     0.9772    12.5553 </r>
       <r>     8.5222     1.8927    12.7049 </r>
       <r>     8.6013     1.8945    12.8545 </r>
       <r>     8.6803     1.5262    12.9751 </r>
       <r>     8.7593     2.9276    13.2065 </r>
       <r>     8.8383     2.6819    13.4184 </r>
       <r>     8.9173     2.0560    13.5808 </r>
       <r>     8.9963     0.8597    13.6488 </r>
       <r>     9.0753     0.5038    13.6886 </r>
       <r>     9.1544     1.5171    13.8084 </r>
       <r>     9.2334     1.0768    13.8935 </r>
       <r>     9.3124     2.7858    14.1137 </r>
       <r>     9.3914     2.2254    14.2895 </r>
       <r>     9.4704     0.9388    14.3637 </r>
       <r>     9.5494     1.2419    14.4618 </r>
       <r>     9.6285     2.1407    14.6310 </r>
       <r>     9.7075     1.7217    14.7670 </r>
       <r>     9.7865     1.9455    14.9207 </r>
       <r>     9.8655     1.8873    15.0698 </r>
       <r>     9.9445     2.5466    15.2711 </r>
       <r>    10.0235     1.0279    15.3523 </r>
       <r>    10.1025     1.7334    15.4892 </r>
       <r>    10.1816     2.7399    15.7057 </r>
       <r>    10.2606     1.6352    15.8349 </r>
       <r>    10.3396     2.3631    16.0217 </r>
       <r>    10.4186     2.3951    16.2109 </r>
       <r>    10.4976     1.1292    16.3001 </r>
       <r>    10.5766     0.7136    16.3565 </r>
       <r>    10.6557     1.3883    16.4662 </r>
       <r>    10.7347     1.4527    16.5810 </r>
       <r>    10.8137     2.0367    16.7419 </r>
       <r>    10.8927     0.7080    16.7979 </r>
       <r>    10.9717     1.4026    16.9087 </r>
       <r>    11.0507     2.0670    17.0720 </r>
       <r>    11.1297     3.1999    17.3249 </r>
       <r>    11.2088     3.5491    17.6053 </r>
       <r>    11.2878     2.0493    17.7672 </r>
       <r>    11.3668     1.8982    17.9172 </r>
       <r>    11.4458     1.6581    18.0482 </r>
       <r>    11.5248     1.7648    18.1877 </r>
       <r>    11.6038     1.8777    18.3361 </r>
       <r>    11.6829     0.8341    18.4020 </r>
       <r>    11.7619     1.5568    18.5250 </r>
       <r>    11.8409     2.1453    18.6945 </r>
       <r>    11.9199     1.4658    18.8103 </r>
       <r>    11.9989     1.8201    18.9541 </r>
       <r>    12.0779     3.2543    19.2113 </r>
       <r>    12.1569     3.2019    19.4643 </r>
       <r>    12.2360     1.4941    19.5823 </r>
       <r>    12.3150     2.5369    19.7828 </r>
       <r>    12.3940     1.8432    19.9284 </r>
       <r>    12.4730     2.1840    20.1010 </r>
       <r>    12.5520     0.8677    20.1695 </r>
       <r>    12.6310     0.5692    20.2145 </r>
       <r>    12.7101     2.2363    20.3912 </r>
       <r>    12.7891     2.5147    20.5899 </r>
       <r>    12.8681     2.0305    20.7504 </r>
       <r>    12.9471     2.1213    20.9180 </r>
       <r>    13.0261     1.9564    21.0726 </r>
       <r>    13.1051     1.6988    21.2068 </r>
       <r>    13.1841     2.6332    21.4149 </r>
       <r>    13.2632     1.9086    21.5657 </r>
       <r>    13.3422     1.7562    21.7044 </r>
       <r>    13.4212     2.0364    21.8653 </r>
       <r>    13.5002     1.6155    21.9930 </r>
       <r>    13.5792     0.9407    22.0673 </r>
       <r>    13.6582     1.5618    22.1907 </r>
       <r>    13.7373     1.3981    22.3012 </r>
       <r>    13.8163     0.6357    22.3514 </r>
       <r>    13.8953     1.5378    22.4729 </r>
       <r>    13.9743     1.0329    22.5545 </r>
       <r>    14.0533     0.6062    22.6024 </r>
       <r>    14.1323     0.3484    22.6300 </r>
       <r>    14.2113     0.6585    22.6820 </r>
       <r>    14.2904     1.6003    22.8085 </r>
       <r>    14.3694     1.0717    22.8931 </r>
       <r>    14.4484     0.4211    22.9264 </r>
       <r>    14.5274     1.1250    23.0153 </r>
       <r>    14.6064     0.8334    23.0812 </r>
       <r>    14.6854     0.3006    23.1049 </r>
       <r>    14.7645     0.7350    23.1630 </r>
       <r>    14.8435     0.0782    23.1692 </r>
       <r>    14.9225     0.3009    23.1930 </r>
       <r>    15.0015     0.5179    23.2339 </r>
       <r>    15.0805     0.8125    23.2981 </r>
       <r>    15.1595     0.0427    23.3014 </r>
       <r>    15.2385     0.9873    23.3795 </r>
       <r>    15.3176     0.3072    23.4037 </r>
       <r>    15.3966     0.6220    23.4529 </r>
       <r>    15.4756     0.6220    23.5020 </r>
       <r>    15.5546     0.4165    23.5349 </r>
       <r>    15.6336     0.1095    23.5436 </r>
       <r>    15.7126    -0.0247    23.5416 </r>
       <r>    15.7917     0.4297    23.5756 </r>
       <r>    15.8707     0.2000    23.5914 </r>
       <r>    15.9497     0.6892    23.6458 </r>
       <r>    16.0287     0.8476    23.7128 </r>
       <r>    16.1077     0.1429    23.7241 </r>
       <r>    16.1867    -0.0074    23.7235 </r>
       <r>    16.2657    -0.0013    23.7234 </r>
       <r>    16.3448     0.0259    23.7255 </r>
       <r>    16.4238     0.2697    23.7468 </r>
       <r>    16.5028     0.5815    23.7927 </r>
       <r>    16.5818     0.2772    23.8146 </r>
       <r>    16.6608     0.2448    23.8340 </r>
       <r>    16.7398     0.1282    23.8441 </r>
       <r>    16.8189    -0.0045    23.8437 </r>
       <r>    16.8979    -0.0024    23.8435 </r>
       <r>    16.9769     0.0410    23.8468 </r>
       <r>    17.0559     0.5654    23.8915 </r>
       <r>    17.1349     0.1797    23.9057 </r>
       <r>    17.2139     0.1351    23.9163 </r>
       <r>    17.2929    -0.0061    23.9159 </r>
       <r>    17.3720    -0.0000    23.9159 </r>
       <r>    17.4510    -0.0000    23.9159 </r>
       <r>    17.5300    -0.0000    23.9159 </r>
       <r>    17.6090    -0.0008    23.9158 </r>
       <r>    17.6880     0.0042    23.9161 </r>
       <r>    17.7670     0.4171    23.9491 </r>
       <r>    17.8461     0.0381    23.9521 </r>
       <r>    17.9251    -0.0021    23.9519 </r>
       <r>    18.0041    -0.0000    23.9519 </r>
       <r>    18.0831    -0.0000    23.9519 </r>
       <r>    18.1621    -0.0029    23.9517 </r>
       <r>    18.2411     0.0690    23.9571 </r>
       <r>    18.3201     0.2466    23.9766 </r>
       <r>    18.3992     0.0425    23.9800 </r>
       <r>    18.4782     0.2626    24.0007 </r>
       <r>    18.5572    -0.0091    24.0000 </r>
       <r>    18.6362    -0.0002    24.0000 </r>
       <r>    18.7152    -0.0000    24.0000 </r>
       <r>    18.7942    -0.0000    24.0000 </r>
       <r>    18.8733     0.0000    24.0000 </r>
       <r>    18.9523     0.0000    24.0000 </r>
       <r>    19.0313     0.0000    24.0000 </r>
       <r>    19.1103     0.0000    24.0000 </r>
       <r>    19.1893     0.0000    24.0000 </r>
       <r>    19.2683     0.0000    24.0000 </r>
       <r>    19.3473     0.0000    24.0000 </r>
       <r>    19.4264     0.0000    24.0000 </r>
       <r>    19.5054     0.0000    24.0000 </r>
      </set>
     </set>
    </array>
   </total>
  </dos>
 </calculation>
 <structure name="finalpos" >
  <crystal>
   <varray name="basis" >
    <v>       4.04336400       0.00000000       0.00000000 </v>
    <v>       0.00000000       4.04336400       0.00000000 </v>
    <v>       0.00000000       0.00000000       4.02309700 </v>
   </varray>
   <i name="volume">     65.77277780 </i>
   <varray name="rec_basis" >
    <v>       0.24731882       0.00000000       0.00000000 </v>
    <v>       0.00000000       0.24731882       0.00000000 </v>
    <v>       0.00000000       0.00000000       0.24856473 </v>
   </varray>
  </crystal>
  <varray name="positions" >
   <v>       0.00000000       0.00000000       0.00000000 </v>
   <v>       0.00000000       0.50000000       0.50000000 </v>
   <v>       0.50000000       0.00000000       0.50000000 </v>
   <v>       0.50000000       0.50000000       0.00000000 </v>
  </varray>
 </structure>
</modeling>
