<?xml version="1.0" encoding="ISO-8859-1"?>
<modeling>
 <generator>
  <i name="program" type="string">vasp </i>
  <i name="version" type="string">5.4.4.18Apr17-6-g9f103f2a35  </i>
  <i name="subversion" type="string">(build Jun 11 2017 21:30:58) complex            parallel </i>
  <i name="platform" type="string">LinuxIFC </i>
  <i name="date" type="string">2022 07 07 </i>
  <i name="time" type="string">18:39:29 </i>
 </generator>
 <incar>
  <i type="string" name="PREC">accurate</i>
  <i type="string" name="ALGO"> Normal</i>
  <i type="logical" name="ADDGRID"> T  </i>
  <i type="int" name="NELM">   100</i>
  <i type="int" name="NELMIN">     4</i>
  <i type="int" name="IBRION">    -1</i>
  <i name="EDIFF">      0.00005000</i>
  <i name="ENCUT">    520.00000000</i>
  <i type="logical" name="LREAL"> F  </i>
  <i type="int" name="ISMEAR">     1</i>
  <i name="SIGMA">      0.05000000</i>
  <i type="logical" name="LWAVE"> F  </i>
  <i type="logical" name="LCHARG"> F  </i>
  <i type="logical" name="LASPH"> T  </i>
  <v type="int" name="KPOINT_BSE">    -1     0     0     0</v>
  <i type="int" name="NELM">   100</i>
  <i type="logical" name="LASPH"> T  </i>
 </incar>
 <structure name="primitive_cell" >
  <crystal>
   <varray name="basis" >
    <v>       2.02168200      -2.02168200       0.00000000 </v>
    <v>      -2.02168200      -2.02168200       0.00000000 </v>
    <v>       0.24260200       2.02168200      -2.00707300 </v>
   </varray>
   <i name="volume">     16.40660994 </i>
   <varray name="rec_basis" >
    <v>       0.24731882      -0.24731882      -0.21922469 </v>
    <v>      -0.24731882      -0.24731882      -0.27901329 </v>
    <v>       0.00000000       0.00000000      -0.49823798 </v>
   </varray>
  </crystal>
  <varray name="positions" >
   <v>       0.00000000       0.00000000       0.00000000 </v>
  </varray>
 </structure>
 <varray name="primitive_index" >
  <v type="int" >        1 </v>
 </varray>
 <kpoints>
  <generation param="Gamma">
   <v type="int" name="divisions">      11       11       11 </v>
   <v name="usershift">      0.00000000       0.00000000       0.00000000 </v>
   <v name="genvec1">      0.09090909       0.00000000       0.00000000 </v>
   <v name="genvec2">      0.00000000       0.09090909       0.00000000 </v>
   <v name="genvec3">      0.00000000       0.00000000       0.09090909 </v>
   <v name="shift">      0.00000000       0.00000000       0.00000000 </v>
  </generation>
  <varray name="kpointlist" >
   <v>       0.00000000       0.00000000       0.00000000 </v>
   <v>       0.09090909       0.00000000      -0.00000000 </v>
   <v>       0.18181818       0.00000000      -0.00000000 </v>
   <v>       0.27272727       0.00000000       0.00000000 </v>
   <v>       0.36363636       0.00000000      -0.00000000 </v>
   <v>       0.45454545       0.00000000      -0.00000000 </v>
   <v>       0.00000000       0.09090909       0.00000000 </v>
   <v>       0.09090909       0.09090909      -0.00000000 </v>
   <v>       0.18181818       0.09090909      -0.00000000 </v>
   <v>       0.27272727       0.09090909       0.00000000 </v>
   <v>       0.36363636       0.09090909      -0.00000000 </v>
   <v>       0.45454545       0.09090909      -0.00000000 </v>
   <v>       0.00000000       0.18181818       0.00000000 </v>
   <v>       0.09090909       0.18181818      -0.00000000 </v>
   <v>       0.18181818       0.18181818      -0.00000000 </v>
   <v>       0.27272727       0.18181818       0.00000000 </v>
   <v>       0.36363636       0.18181818      -0.00000000 </v>
   <v>       0.45454545       0.18181818      -0.00000000 </v>
   <v>       0.00000000       0.27272727       0.00000000 </v>
   <v>       0.09090909       0.27272727      -0.00000000 </v>
   <v>       0.18181818       0.27272727      -0.00000000 </v>
   <v>       0.27272727       0.27272727       0.00000000 </v>
   <v>       0.36363636       0.27272727      -0.00000000 </v>
   <v>       0.45454545       0.27272727      -0.00000000 </v>
   <v>       0.00000000       0.36363636       0.00000000 </v>
   <v>       0.09090909       0.36363636      -0.00000000 </v>
   <v>       0.18181818       0.36363636      -0.00000000 </v>
   <v>       0.27272727       0.36363636       0.00000000 </v>
   <v>       0.36363636       0.36363636      -0.00000000 </v>
   <v>       0.45454545       0.36363636      -0.00000000 </v>
   <v>       0.00000000       0.45454545       0.00000000 </v>
   <v>       0.09090909       0.45454545      -0.00000000 </v>
   <v>       0.18181818       0.45454545      -0.00000000 </v>
   <v>       0.27272727       0.45454545       0.00000000 </v>
   <v>       0.36363636       0.45454545      -0.00000000 </v>
   <v>       0.45454545       0.45454545      -0.00000000 </v>
   <v>       0.09090909       0.00000000       0.09090909 </v>
   <v>       0.18181818       0.00000000       0.09090909 </v>
   <v>       0.27272727       0.00000000       0.09090909 </v>
   <v>       0.36363636       0.00000000       0.09090909 </v>
   <v>       0.45454545       0.00000000       0.09090909 </v>
   <v>      -0.45454545       0.00000000       0.09090909 </v>
   <v>      -0.36363636       0.00000000       0.09090909 </v>
   <v>      -0.27272727       0.00000000       0.09090909 </v>
   <v>      -0.18181818       0.00000000       0.09090909 </v>
   <v>      -0.09090909       0.00000000       0.09090909 </v>
   <v>       0.09090909       0.09090909       0.09090909 </v>
   <v>       0.18181818       0.09090909       0.09090909 </v>
   <v>       0.27272727       0.09090909       0.09090909 </v>
   <v>       0.36363636       0.09090909       0.09090909 </v>
   <v>       0.45454545       0.09090909       0.09090909 </v>
   <v>      -0.45454545       0.09090909       0.09090909 </v>
   <v>      -0.36363636       0.09090909       0.09090909 </v>
   <v>      -0.27272727       0.09090909       0.09090909 </v>
   <v>      -0.18181818       0.09090909       0.09090909 </v>
   <v>      -0.09090909       0.09090909       0.09090909 </v>
   <v>       0.09090909       0.18181818       0.09090909 </v>
   <v>       0.18181818       0.18181818       0.09090909 </v>
   <v>       0.27272727       0.18181818       0.09090909 </v>
   <v>       0.36363636       0.18181818       0.09090909 </v>
   <v>       0.45454545       0.18181818       0.09090909 </v>
   <v>      -0.45454545       0.18181818       0.09090909 </v>
   <v>      -0.36363636       0.18181818       0.09090909 </v>
   <v>      -0.27272727       0.18181818       0.09090909 </v>
   <v>      -0.18181818       0.18181818       0.09090909 </v>
   <v>      -0.09090909       0.18181818       0.09090909 </v>
   <v>       0.09090909       0.27272727       0.09090909 </v>
   <v>       0.18181818       0.27272727       0.09090909 </v>
   <v>       0.27272727       0.27272727       0.09090909 </v>
   <v>       0.36363636       0.27272727       0.09090909 </v>
   <v>       0.45454545       0.27272727       0.09090909 </v>
   <v>      -0.45454545       0.27272727       0.09090909 </v>
   <v>      -0.36363636       0.27272727       0.09090909 </v>
   <v>      -0.27272727       0.27272727       0.09090909 </v>
   <v>      -0.18181818       0.27272727       0.09090909 </v>
   <v>      -0.09090909       0.27272727       0.09090909 </v>
   <v>       0.09090909       0.36363636       0.09090909 </v>
   <v>       0.18181818       0.36363636       0.09090909 </v>
   <v>       0.27272727       0.36363636       0.09090909 </v>
   <v>       0.36363636       0.36363636       0.09090909 </v>
   <v>       0.45454545       0.36363636       0.09090909 </v>
   <v>      -0.45454545       0.36363636       0.09090909 </v>
   <v>      -0.36363636       0.36363636       0.09090909 </v>
   <v>      -0.27272727       0.36363636       0.09090909 </v>
   <v>      -0.18181818       0.36363636       0.09090909 </v>
   <v>      -0.09090909       0.36363636       0.09090909 </v>
   <v>       0.09090909       0.45454545       0.09090909 </v>
   <v>       0.18181818       0.45454545       0.09090909 </v>
   <v>       0.27272727       0.45454545       0.09090909 </v>
   <v>       0.36363636       0.45454545       0.09090909 </v>
   <v>       0.45454545       0.45454545       0.09090909 </v>
   <v>      -0.45454545       0.45454545       0.09090909 </v>
   <v>      -0.36363636       0.45454545       0.09090909 </v>
   <v>      -0.27272727       0.45454545       0.09090909 </v>
   <v>      -0.18181818       0.45454545       0.09090909 </v>
   <v>      -0.09090909       0.45454545       0.09090909 </v>
   <v>       0.18181818       0.00000000       0.18181818 </v>
   <v>       0.27272727       0.00000000       0.18181818 </v>
   <v>       0.36363636       0.00000000       0.18181818 </v>
   <v>       0.45454545       0.00000000       0.18181818 </v>
   <v>      -0.45454545       0.00000000       0.18181818 </v>
   <v>      -0.36363636       0.00000000       0.18181818 </v>
   <v>      -0.27272727       0.00000000       0.18181818 </v>
   <v>      -0.18181818       0.00000000       0.18181818 </v>
   <v>       0.18181818       0.09090909       0.18181818 </v>
   <v>       0.27272727       0.09090909       0.18181818 </v>
   <v>       0.36363636       0.09090909       0.18181818 </v>
   <v>       0.45454545       0.09090909       0.18181818 </v>
   <v>      -0.45454545       0.09090909       0.18181818 </v>
   <v>      -0.36363636       0.09090909       0.18181818 </v>
   <v>      -0.27272727       0.09090909       0.18181818 </v>
   <v>      -0.18181818       0.09090909       0.18181818 </v>
   <v>       0.18181818       0.18181818       0.18181818 </v>
   <v>       0.27272727       0.18181818       0.18181818 </v>
   <v>       0.36363636       0.18181818       0.18181818 </v>
   <v>       0.45454545       0.18181818       0.18181818 </v>
   <v>      -0.45454545       0.18181818       0.18181818 </v>
   <v>      -0.36363636       0.18181818       0.18181818 </v>
   <v>      -0.27272727       0.18181818       0.18181818 </v>
   <v>      -0.18181818       0.18181818       0.18181818 </v>
   <v>       0.18181818       0.27272727       0.18181818 </v>
   <v>       0.27272727       0.27272727       0.18181818 </v>
   <v>       0.36363636       0.27272727       0.18181818 </v>
   <v>       0.45454545       0.27272727       0.18181818 </v>
   <v>      -0.45454545       0.27272727       0.18181818 </v>
   <v>      -0.36363636       0.27272727       0.18181818 </v>
   <v>      -0.27272727       0.27272727       0.18181818 </v>
   <v>      -0.18181818       0.27272727       0.18181818 </v>
   <v>       0.18181818       0.36363636       0.18181818 </v>
   <v>       0.27272727       0.36363636       0.18181818 </v>
   <v>       0.36363636       0.36363636       0.18181818 </v>
   <v>       0.45454545       0.36363636       0.18181818 </v>
   <v>      -0.45454545       0.36363636       0.18181818 </v>
   <v>      -0.36363636       0.36363636       0.18181818 </v>
   <v>      -0.27272727       0.36363636       0.18181818 </v>
   <v>      -0.18181818       0.36363636       0.18181818 </v>
   <v>       0.18181818       0.45454545       0.18181818 </v>
   <v>       0.27272727       0.45454545       0.18181818 </v>
   <v>       0.36363636       0.45454545       0.18181818 </v>
   <v>       0.45454545       0.45454545       0.18181818 </v>
   <v>      -0.45454545       0.45454545       0.18181818 </v>
   <v>      -0.36363636       0.45454545       0.18181818 </v>
   <v>      -0.27272727       0.45454545       0.18181818 </v>
   <v>      -0.18181818       0.45454545       0.18181818 </v>
   <v>       0.27272727       0.00000000       0.27272727 </v>
   <v>       0.36363636       0.00000000       0.27272727 </v>
   <v>       0.45454545       0.00000000       0.27272727 </v>
   <v>      -0.45454545       0.00000000       0.27272727 </v>
   <v>      -0.36363636       0.00000000       0.27272727 </v>
   <v>      -0.27272727       0.00000000       0.27272727 </v>
   <v>       0.27272727       0.09090909       0.27272727 </v>
   <v>       0.36363636       0.09090909       0.27272727 </v>
   <v>       0.45454545       0.09090909       0.27272727 </v>
   <v>      -0.45454545       0.09090909       0.27272727 </v>
   <v>      -0.36363636       0.09090909       0.27272727 </v>
   <v>      -0.27272727       0.09090909       0.27272727 </v>
   <v>       0.27272727       0.18181818       0.27272727 </v>
   <v>       0.36363636       0.18181818       0.27272727 </v>
   <v>       0.45454545       0.18181818       0.27272727 </v>
   <v>      -0.45454545       0.18181818       0.27272727 </v>
   <v>      -0.36363636       0.18181818       0.27272727 </v>
   <v>      -0.27272727       0.18181818       0.27272727 </v>
   <v>       0.27272727       0.27272727       0.27272727 </v>
   <v>       0.36363636       0.27272727       0.27272727 </v>
   <v>       0.45454545       0.27272727       0.27272727 </v>
   <v>      -0.45454545       0.27272727       0.27272727 </v>
   <v>      -0.36363636       0.27272727       0.27272727 </v>
   <v>      -0.27272727       0.27272727       0.27272727 </v>
   <v>       0.27272727       0.36363636       0.27272727 </v>
   <v>       0.36363636       0.36363636       0.27272727 </v>
   <v>       0.45454545       0.36363636       0.27272727 </v>
   <v>      -0.45454545       0.36363636       0.27272727 </v>
   <v>      -0.36363636       0.36363636       0.27272727 </v>
   <v>      -0.27272727       0.36363636       0.27272727 </v>
   <v>       0.27272727       0.45454545       0.27272727 </v>
   <v>       0.36363636       0.45454545       0.27272727 </v>
   <v>       0.45454545       0.45454545       0.27272727 </v>
   <v>      -0.45454545       0.45454545       0.27272727 </v>
   <v>      -0.36363636       0.45454545       0.27272727 </v>
   <v>      -0.27272727       0.45454545       0.27272727 </v>
   <v>       0.36363636       0.00000000       0.36363636 </v>
   <v>       0.45454545       0.00000000       0.36363636 </v>
   <v>      -0.45454545       0.00000000       0.36363636 </v>
   <v>      -0.36363636       0.00000000       0.36363636 </v>
   <v>       0.36363636       0.09090909       0.36363636 </v>
   <v>       0.45454545       0.09090909       0.36363636 </v>
   <v>      -0.45454545       0.09090909       0.36363636 </v>
   <v>      -0.36363636       0.09090909       0.36363636 </v>
   <v>       0.36363636       0.18181818       0.36363636 </v>
   <v>       0.45454545       0.18181818       0.36363636 </v>
   <v>      -0.45454545       0.18181818       0.36363636 </v>
   <v>      -0.36363636       0.18181818       0.36363636 </v>
   <v>       0.36363636       0.27272727       0.36363636 </v>
   <v>       0.45454545       0.27272727       0.36363636 </v>
   <v>      -0.45454545       0.27272727       0.36363636 </v>
   <v>      -0.36363636       0.27272727       0.36363636 </v>
   <v>       0.36363636       0.36363636       0.36363636 </v>
   <v>       0.45454545       0.36363636       0.36363636 </v>
   <v>      -0.45454545       0.36363636       0.36363636 </v>
   <v>      -0.36363636       0.36363636       0.36363636 </v>
   <v>       0.36363636       0.45454545       0.36363636 </v>
   <v>       0.45454545       0.45454545       0.36363636 </v>
   <v>      -0.45454545       0.45454545       0.36363636 </v>
   <v>      -0.36363636       0.45454545       0.36363636 </v>
   <v>       0.45454545       0.00000000       0.45454545 </v>
   <v>      -0.45454545       0.00000000       0.45454545 </v>
   <v>       0.45454545       0.09090909       0.45454545 </v>
   <v>      -0.45454545       0.09090909       0.45454545 </v>
   <v>       0.45454545       0.18181818       0.45454545 </v>
   <v>      -0.45454545       0.18181818       0.45454545 </v>
   <v>       0.45454545       0.27272727       0.45454545 </v>
   <v>      -0.45454545       0.27272727       0.45454545 </v>
   <v>       0.45454545       0.36363636       0.45454545 </v>
   <v>      -0.45454545       0.36363636       0.45454545 </v>
   <v>       0.45454545       0.45454545       0.45454545 </v>
   <v>      -0.45454545       0.45454545       0.45454545 </v>
  </varray>
  <varray name="weights" >
   <v>       0.00075131 </v>
   <v>       0.00300526 </v>
   <v>       0.00300526 </v>
   <v>       0.00300526 </v>
   <v>       0.00300526 </v>
   <v>       0.00300526 </v>
   <v>       0.00150263 </v>
   <v>       0.00601052 </v>
   <v>       0.00601052 </v>
   <v>       0.00601052 </v>
   <v>       0.00601052 </v>
   <v>       0.00601052 </v>
   <v>       0.00150263 </v>
   <v>       0.00601052 </v>
   <v>       0.00601052 </v>
   <v>       0.00601052 </v>
   <v>       0.00601052 </v>
   <v>       0.00601052 </v>
   <v>       0.00150263 </v>
   <v>       0.00601052 </v>
   <v>       0.00601052 </v>
   <v>       0.00601052 </v>
   <v>       0.00601052 </v>
   <v>       0.00601052 </v>
   <v>       0.00150263 </v>
   <v>       0.00601052 </v>
   <v>       0.00601052 </v>
   <v>       0.00601052 </v>
   <v>       0.00601052 </v>
   <v>       0.00601052 </v>
   <v>       0.00150263 </v>
   <v>       0.00601052 </v>
   <v>       0.00601052 </v>
   <v>       0.00601052 </v>
   <v>       0.00601052 </v>
   <v>       0.00601052 </v>
   <v>       0.00150263 </v>
   <v>       0.00300526 </v>
   <v>       0.00300526 </v>
   <v>       0.00300526 </v>
   <v>       0.00300526 </v>
   <v>       0.00300526 </v>
   <v>       0.00300526 </v>
   <v>       0.00300526 </v>
   <v>       0.00300526 </v>
   <v>       0.00150263 </v>
   <v>       0.00300526 </v>
   <v>       0.00601052 </v>
   <v>       0.00601052 </v>
   <v>       0.00601052 </v>
   <v>       0.00601052 </v>
   <v>       0.00601052 </v>
   <v>       0.00601052 </v>
   <v>       0.00601052 </v>
   <v>       0.00601052 </v>
   <v>       0.00300526 </v>
   <v>       0.00300526 </v>
   <v>       0.00601052 </v>
   <v>       0.00601052 </v>
   <v>       0.00601052 </v>
   <v>       0.00601052 </v>
   <v>       0.00601052 </v>
   <v>       0.00601052 </v>
   <v>       0.00601052 </v>
   <v>       0.00601052 </v>
   <v>       0.00300526 </v>
   <v>       0.00300526 </v>
   <v>       0.00601052 </v>
   <v>       0.00601052 </v>
   <v>       0.00601052 </v>
   <v>       0.00601052 </v>
   <v>       0.00601052 </v>
   <v>       0.00601052 </v>
   <v>       0.00601052 </v>
   <v>       0.00601052 </v>
   <v>       0.00300526 </v>
   <v>       0.00300526 </v>
   <v>       0.00601052 </v>
   <v>       0.00601052 </v>
   <v>       0.00601052 </v>
   <v>       0.00601052 </v>
   <v>       0.00601052 </v>
   <v>       0.00601052 </v>
   <v>       0.00601052 </v>
   <v>       0.00601052 </v>
   <v>       0.00300526 </v>
   <v>       0.00300526 </v>
   <v>       0.00601052 </v>
   <v>       0.00601052 </v>
   <v>       0.00601052 </v>
   <v>       0.00601052 </v>
   <v>       0.00601052 </v>
   <v>       0.00601052 </v>
   <v>       0.00601052 </v>
   <v>       0.00601052 </v>
   <v>       0.00300526 </v>
   <v>       0.00150263 </v>
   <v>       0.00300526 </v>
   <v>       0.00300526 </v>
   <v>       0.00300526 </v>
   <v>       0.00300526 </v>
   <v>       0.00300526 </v>
   <v>       0.00300526 </v>
   <v>       0.00150263 </v>
   <v>       0.00300526 </v>
   <v>       0.00601052 </v>
   <v>       0.00601052 </v>
   <v>       0.00601052 </v>
   <v>       0.00601052 </v>
   <v>       0.00601052 </v>
   <v>       0.00601052 </v>
   <v>       0.00300526 </v>
   <v>       0.00300526 </v>
   <v>       0.00601052 </v>
   <v>       0.00601052 </v>
   <v>       0.00601052 </v>
   <v>       0.00601052 </v>
   <v>       0.00601052 </v>
   <v>       0.00601052 </v>
   <v>       0.00300526 </v>
   <v>       0.00300526 </v>
   <v>       0.00601052 </v>
   <v>       0.00601052 </v>
   <v>       0.00601052 </v>
   <v>       0.00601052 </v>
   <v>       0.00601052 </v>
   <v>       0.00601052 </v>
   <v>       0.00300526 </v>
   <v>       0.00300526 </v>
   <v>       0.00601052 </v>
   <v>       0.00601052 </v>
   <v>       0.00601052 </v>
   <v>       0.00601052 </v>
   <v>       0.00601052 </v>
   <v>       0.00601052 </v>
   <v>       0.00300526 </v>
   <v>       0.00300526 </v>
   <v>       0.00601052 </v>
   <v>       0.00601052 </v>
   <v>       0.00601052 </v>
   <v>       0.00601052 </v>
   <v>       0.00601052 </v>
   <v>       0.00601052 </v>
   <v>       0.00300526 </v>
   <v>       0.00150263 </v>
   <v>       0.00300526 </v>
   <v>       0.00300526 </v>
   <v>       0.00300526 </v>
   <v>       0.00300526 </v>
   <v>       0.00150263 </v>
   <v>       0.00300526 </v>
   <v>       0.00601052 </v>
   <v>       0.00601052 </v>
   <v>       0.00601052 </v>
   <v>       0.00601052 </v>
   <v>       0.00300526 </v>
   <v>       0.00300526 </v>
   <v>       0.00601052 </v>
   <v>       0.00601052 </v>
   <v>       0.00601052 </v>
   <v>       0.00601052 </v>
   <v>       0.00300526 </v>
   <v>       0.00300526 </v>
   <v>       0.00601052 </v>
   <v>       0.00601052 </v>
   <v>       0.00601052 </v>
   <v>       0.00601052 </v>
   <v>       0.00300526 </v>
   <v>       0.00300526 </v>
   <v>       0.00601052 </v>
   <v>       0.00601052 </v>
   <v>       0.00601052 </v>
   <v>       0.00601052 </v>
   <v>       0.00300526 </v>
   <v>       0.00300526 </v>
   <v>       0.00601052 </v>
   <v>       0.00601052 </v>
   <v>       0.00601052 </v>
   <v>       0.00601052 </v>
   <v>       0.00300526 </v>
   <v>       0.00150263 </v>
   <v>       0.00300526 </v>
   <v>       0.00300526 </v>
   <v>       0.00150263 </v>
   <v>       0.00300526 </v>
   <v>       0.00601052 </v>
   <v>       0.00601052 </v>
   <v>       0.00300526 </v>
   <v>       0.00300526 </v>
   <v>       0.00601052 </v>
   <v>       0.00601052 </v>
   <v>       0.00300526 </v>
   <v>       0.00300526 </v>
   <v>       0.00601052 </v>
   <v>       0.00601052 </v>
   <v>       0.00300526 </v>
   <v>       0.00300526 </v>
   <v>       0.00601052 </v>
   <v>       0.00601052 </v>
   <v>       0.00300526 </v>
   <v>       0.00300526 </v>
   <v>       0.00601052 </v>
   <v>       0.00601052 </v>
   <v>       0.00300526 </v>
   <v>       0.00150263 </v>
   <v>       0.00150263 </v>
   <v>       0.00300526 </v>
   <v>       0.00300526 </v>
   <v>       0.00300526 </v>
   <v>       0.00300526 </v>
   <v>       0.00300526 </v>
   <v>       0.00300526 </v>
   <v>       0.00300526 </v>
   <v>       0.00300526 </v>
   <v>       0.00300526 </v>
   <v>       0.00300526 </v>
  </varray>
 </kpoints>
 <parameters>
  <separator name="general" >
   <i type="string" name="SYSTEM">unknown system</i>
   <i type="logical" name="LCOMPAT"> F  </i>
  </separator>
  <separator name="electronic" >
   <i type="string" name="PREC">accura</i>
   <i name="ENMAX">    520.00000000</i>
   <i name="ENAUG">    291.05200000</i>
   <i name="EDIFF">      0.00005000</i>
   <i type="int" name="IALGO">    38</i>
   <i type="int" name="IWAVPR">    10</i>
   <i type="int" name="NBANDS">    12</i>
   <i name="NELECT">     12.00000000</i>
   <i type="int" name="TURBO">     0</i>
   <i type="int" name="IRESTART">     0</i>
   <i type="int" name="NREBOOT">     0</i>
   <i type="int" name="NMIN">     0</i>
   <i name="EREF">      0.00000000</i>
   <separator name="electronic smearing" >
    <i type="int" name="ISMEAR">     1</i>
    <i name="SIGMA">      0.05000000</i>
    <i name="KSPACING">      0.50000000</i>
    <i type="logical" name="KGAMMA"> T  </i>
   </separator>
   <separator name="electronic projectors" >
    <i type="logical" name="LREAL"> F  </i>
    <v name="ROPT">      0.00000000</v>
    <i type="int" name="LMAXPAW">  -100</i>
    <i type="int" name="LMAXMIX">     2</i>
    <i type="logical" name="NLSPLINE"> F  </i>
   </separator>
   <separator name="electronic startup" >
    <i type="int" name="ISTART">     0</i>
    <i type="int" name="ICHARG">     2</i>
    <i type="int" name="INIWAV">     1</i>
   </separator>
   <separator name="electronic spin" >
    <i type="int" name="ISPIN">     1</i>
    <i type="logical" name="LNONCOLLINEAR"> F  </i>
    <v name="MAGMOM">      1.00000000      1.00000000      1.00000000      1.00000000</v>
    <i name="NUPDOWN">     -1.00000000</i>
    <i type="logical" name="LSORBIT"> F  </i>
    <v name="SAXIS">      0.00000000      0.00000000      1.00000000</v>
    <i type="logical" name="LSPIRAL"> F  </i>
    <v name="QSPIRAL">      0.00000000      0.00000000      0.00000000</v>
    <i type="logical" name="LZEROZ"> F  </i>
   </separator>
   <separator name="electronic exchange-correlation" >
    <i type="logical" name="LASPH"> T  </i>
    <i type="logical" name="LMETAGGA"> F  </i>
   </separator>
   <separator name="electronic convergence" >
    <i type="int" name="NELM">   100</i>
    <i type="int" name="NELMDL">    -5</i>
    <i type="int" name="NELMIN">     4</i>
    <i name="ENINI">    520.00000000</i>
    <separator name="electronic convergence detail" >
     <i type="logical" name="LDIAG"> T  </i>
     <i type="logical" name="LSUBROT"> F  </i>
     <i name="WEIMIN">      0.00000000</i>
     <i name="EBREAK">      0.00000104</i>
     <i name="DEPER">      0.30000000</i>
     <i type="int" name="NRMM">     4</i>
     <i name="TIME">      0.40000000</i>
    </separator>
   </separator>
   <separator name="electronic mixer" >
    <i name="AMIX">      0.40000000</i>
    <i name="BMIX">      1.00000000</i>
    <i name="AMIN">      0.10000000</i>
    <i name="AMIX_MAG">      1.60000000</i>
    <i name="BMIX_MAG">      1.00000000</i>
    <separator name="electronic mixer details" >
     <i type="int" name="IMIX">     4</i>
     <i type="logical" name="MIXFIRST"> F  </i>
     <i type="int" name="MAXMIX">   -45</i>
     <i name="WC">    100.00000000</i>
     <i type="int" name="INIMIX">     1</i>
     <i type="int" name="MIXPRE">     1</i>
     <i type="int" name="MREMOVE">     5</i>
    </separator>
   </separator>
   <separator name="electronic dipolcorrection" >
    <i type="logical" name="LDIPOL"> F  </i>
    <i type="logical" name="LMONO"> F  </i>
    <i type="int" name="IDIPOL">     0</i>
    <i name="EPSILON">      1.00000000</i>
    <v name="DIPOL">   -100.00000000   -100.00000000   -100.00000000</v>
    <i name="EFIELD">      0.00000000</i>
   </separator>
  </separator>
  <separator name="grids" >
   <i type="int" name="NGX">    30</i>
   <i type="int" name="NGY">    30</i>
   <i type="int" name="NGZ">    30</i>
   <i type="int" name="NGXF">    60</i>
   <i type="int" name="NGYF">    60</i>
   <i type="int" name="NGZF">    60</i>
   <i type="logical" name="ADDGRID"> T  </i>
  </separator>
  <separator name="ionic" >
   <i type="int" name="NSW">     0</i>
   <i type="int" name="IBRION">    -1</i>
   <i type="int" name="MDALGO">     0</i>
   <i type="int" name="ISIF">     2</i>
   <i name="PSTRESS">      0.00000000</i>
   <i name="EDIFFG">      0.00050000</i>
   <i type="int" name="NFREE">     0</i>
   <i name="POTIM">      0.50000000</i>
   <i name="SMASS">     -3.00000000</i>
   <i name="SCALEE">      1.00000000</i>
  </separator>
  <separator name="ionic md" >
   <i name="TEBEG">      0.00010000</i>
   <i name="TEEND">      0.00010000</i>
   <i type="int" name="NBLOCK">     1</i>
   <i type="int" name="KBLOCK">     1</i>
   <i type="int" name="NPACO">   256</i>
   <i name="APACO">     16.00000000</i>
  </separator>
  <separator name="symmetry" >
   <i type="int" name="ISYM">     2</i>
   <i name="SYMPREC">      0.00001000</i>
  </separator>
  <separator name="dos" >
   <i type="int" name="LORBIT">     0</i>
   <v name="RWIGS">     -1.00000000</v>
   <i type="int" name="NEDOS">   301</i>
   <i name="EMIN">     10.00000000</i>
   <i name="EMAX">    -10.00000000</i>
   <i name="EFERMI">      0.00000000</i>
  </separator>
  <separator name="writing" >
   <i type="int" name="NWRITE">     2</i>
   <i type="logical" name="LWAVE"> F  </i>
   <i type="logical" name="LDOWNSAMPLE"> F  </i>
   <i type="logical" name="LCHARG"> F  </i>
   <i type="logical" name="LPARD"> F  </i>
   <i type="logical" name="LVTOT"> F  </i>
   <i type="logical" name="LVHAR"> F  </i>
   <i type="logical" name="LELF"> F  </i>
   <i type="logical" name="LOPTICS"> F  </i>
   <v name="STM">      0.00000000      0.00000000      0.00000000      0.00000000      0.00000000      0.00000000      0.00000000</v>
  </separator>
  <separator name="performance" >
   <i type="int" name="NPAR">     4</i>
   <i type="int" name="NSIM">     4</i>
   <i type="int" name="NBLK">    -1</i>
   <i type="logical" name="LPLANE"> T  </i>
   <i type="logical" name="LSCALAPACK"> T  </i>
   <i type="logical" name="LSCAAWARE"> F  </i>
   <i type="logical" name="LSCALU"> F  </i>
   <i type="logical" name="LASYNC"> F  </i>
   <i type="logical" name="LORBITALREAL"> F  </i>
  </separator>
  <separator name="miscellaneous" >
   <i type="int" name="IDIOT">     3</i>
   <i type="int" name="ISPECIAL">     0</i>
   <i type="logical" name="LMUSIC"> F  </i>
   <v name="POMASS">     26.98100000</v>
   <v name="DARWINR">      0.00000000</v>
   <v name="DARWINV">      1.00000000</v>
   <i type="logical" name="LCORR"> T  </i>
  </separator>
  <i type="logical" name="GGA_COMPAT"> T  </i>
  <i type="logical" name="LBERRY"> F  </i>
  <i type="int" name="ICORELEVEL">     0</i>
  <i type="logical" name="LDAU"> F  </i>
  <i type="int" name="I_CONSTRAINED_M">     0</i>
  <separator name="electronic exchange-correlation" >
   <i type="string" name="GGA">--</i>
   <i type="int" name="VOSKOWN">     0</i>
   <i type="logical" name="LHFCALC"> F  </i>
   <i type="string" name="PRECFOCK"></i>
   <i type="logical" name="LSYMGRAD"> F  </i>
   <i type="logical" name="LHFONE"> F  </i>
   <i type="logical" name="LRHFCALC"> F  </i>
   <i type="logical" name="LTHOMAS"> F  </i>
   <i type="logical" name="LMODELHF"> F  </i>
   <i name="ENCUT4O">     -1.00000000</i>
   <i type="int" name="EXXOEP">     0</i>
   <i type="int" name="FOURORBIT">     0</i>
   <i name="AEXX">      0.00000000</i>
   <i name="HFALPHA">      0.00000000</i>
   <i name="MCALPHA">      0.00000000</i>
   <i name="ALDAX">      1.00000000</i>
   <i name="AGGAX">      1.00000000</i>
   <i name="ALDAC">      1.00000000</i>
   <i name="AGGAC">      1.00000000</i>
   <i type="int" name="NKREDX">     1</i>
   <i type="int" name="NKREDY">     1</i>
   <i type="int" name="NKREDZ">     1</i>
   <i type="logical" name="SHIFTRED"> F  </i>
   <i type="logical" name="ODDONLY"> F  </i>
   <i type="logical" name="EVENONLY"> F  </i>
   <i type="int" name="LMAXFOCK">     0</i>
   <i type="int" name="NMAXFOCKAE">     0</i>
   <i type="logical" name="LFOCKAEDFT"> F  </i>
   <i name="HFSCREEN">      0.00000000</i>
   <i name="HFSCREENC">      0.00000000</i>
   <i type="int" name="NBANDSGWLOW">     0</i>
  </separator>
  <separator name="vdW DFT" >
   <i type="logical" name="LUSE_VDW"> F  </i>
   <i name="Zab_VDW">     -0.84910000</i>
   <i name="PARAM1">      0.12340000</i>
   <i name="PARAM2">      1.00000000</i>
   <i name="PARAM3">      0.00000000</i>
  </separator>
  <separator name="model GW" >
   <i type="int" name="MODEL_GW">     0</i>
   <i name="MODEL_EPS0">      9.84396596</i>
   <i name="MODEL_ALPHA">      1.00000000</i>
  </separator>
  <separator name="linear response parameters" >
   <i type="logical" name="LEPSILON"> F  </i>
   <i type="logical" name="LRPA"> F  </i>
   <i type="logical" name="LNABLA"> F  </i>
   <i type="logical" name="LVEL"> F  </i>
   <i type="int" name="KINTER">     0</i>
   <i name="CSHIFT">      0.10000000</i>
   <i name="OMEGAMAX">     -1.00000000</i>
   <i name="DEG_THRESHOLD">      0.00200000</i>
   <i name="RTIME">     -0.10000000</i>
   <i name="WPLASMAI">      0.00000000</i>
   <v name="DFIELD">      0.00000000      0.00000000      0.00000000</v>
   <v name="WPLASMA">      0.00000000      0.00000000      0.00000000      0.00000000      0.00000000      0.00000000      0.00000000      0.00000000      0.00000000</v>
  </separator>
  <separator name="orbital magnetization" >
   <i type="logical" name="NUCIND"> F  </i>
   <v name="MAGPOS">      0.00000000      0.00000000      0.00000000</v>
   <i type="logical" name="LNICSALL"> T  </i>
   <i type="logical" name="ORBITALMAG"> F  </i>
   <i type="logical" name="LMAGBLOCH"> F  </i>
   <i type="logical" name="LCHIMAG"> F  </i>
   <i type="logical" name="LGAUGE"> T  </i>
   <i type="int" name="MAGATOM">     0</i>
   <v name="MAGDIPOL">      0.00000000      0.00000000      0.00000000</v>
   <v name="AVECCONST">      0.00000000      0.00000000      0.00000000</v>
  </separator>
  <separator name="response functions" >
   <i type="logical" name="LADDER"> F  </i>
   <i type="logical" name="LRPAFORCE"> F  </i>
   <i type="logical" name="LFXC"> F  </i>
   <i type="logical" name="LHARTREE"> T  </i>
   <i type="int" name="IBSE">     0</i>
   <v type="int" name="KPOINT">    -1     0     0     0</v>
   <i type="logical" name="LTCTE"> F  </i>
   <i type="logical" name="LTETE"> F  </i>
   <i type="logical" name="LTRIPLET"> F  </i>
   <i type="logical" name="LFXCEPS"> F  </i>
   <i type="logical" name="LFXHEG"> F  </i>
   <i type="int" name="NATURALO">     2</i>
   <i type="logical" name="L2ORDER"> F  </i>
   <i type="logical" name="LMP2LT"> F  </i>
   <i type="logical" name="LUSEW"> F  </i>
   <i name="ENCUTGW">     -2.00000000</i>
   <i name="ENCUTGWSOFT">     -2.00000000</i>
   <i name="ENCUTLF">     -1.00000000</i>
   <i type="int" name="LMAXMP2">    -1</i>
   <i name="SCISSOR">      0.00000000</i>
   <i type="int" name="NOMEGA">     0</i>
   <i type="int" name="NOMEGAR">     0</i>
   <i type="int" name="NBANDSGW">    -1</i>
   <i type="int" name="NBANDSO">    -1</i>
   <i type="int" name="NBANDSV">    -1</i>
   <i type="int" name="NELM">   100</i>
   <i type="int" name="NELMHF">     1</i>
   <i type="int" name="DIM">     3</i>
   <i type="int" name="ANTIRES">     0</i>
   <i name="OMEGAMAX">    -30.00000000</i>
   <i name="OMEGAMIN">    -30.00000000</i>
   <i name="OMEGATL">   -200.00000000</i>
   <i type="int" name="OMEGAGRID">   140</i>
   <i name="CSHIFT">     -0.10000000</i>
   <i type="logical" name="SELFENERGY"> F  </i>
   <i type="logical" name="LSPECTRAL"> F  </i>
   <i type="logical" name="LSPECTRALGW"> F  </i>
   <i type="logical" name="LSINGLES"> F  </i>
   <i type="logical" name="LFERMIGW"> F  </i>
   <i type="logical" name="ODDONLYGW"> F  </i>
   <i type="logical" name="EVENONLYGW"> F  </i>
   <i type="int" name="NKREDLFX">     1</i>
   <i type="int" name="NKREDLFY">     1</i>
   <i type="int" name="NKREDLFZ">     1</i>
   <i type="int" name="MAXMEM">  2800</i>
   <i type="int" name="TELESCOPE">     0</i>
   <i type="int" name="TAUPAR">     1</i>
   <i type="int" name="OMEGAPAR">    -1</i>
   <i name="LAMBDA">      1.00000000</i>
  </separator>
  <separator name="External order field" >
   <i name="OFIELD_KAPPA">      0.00000000</i>
   <v name="OFIELD_K">      0.00000000      0.00000000      0.00000000</v>
   <i name="OFIELD_Q6_NEAR">      0.00000000</i>
   <i name="OFIELD_Q6_FAR">      0.00000000</i>
   <i name="OFIELD_A">      0.00000000</i>
  </separator>
 </parameters>
 <atominfo>
  <atoms>       4 </atoms>
  <types>       1 </types>
  <array name="atoms" >
   <dimension dim="1">ion</dimension>
   <field type="string">element</field>
   <field type="int">atomtype</field>
   <set>
    <rc><c>Al</c><c>   1</c></rc>
    <rc><c>Al</c><c>   1</c></rc>
    <rc><c>Al</c><c>   1</c></rc>
    <rc><c>Al</c><c>   1</c></rc>
   </set>
  </array>
  <array name="atomtypes" >
   <dimension dim="1">type</dimension>
   <field type="int">atomspertype</field>
   <field type="string">element</field>
   <field>mass</field>
   <field>valence</field>
   <field type="string">pseudopotential</field>
   <set>
    <rc><c>   4</c><c>Al</c><c>     26.98100000</c><c>      3.00000000</c><c>  PAW_PBE Al 04Jan2001                  </c></rc>
   </set>
  </array>
 </atominfo>
 <structure name="initialpos" >
  <crystal>
   <varray name="basis" >
    <v>       4.04336400       0.00000000       0.00000000 </v>
    <v>       0.00000000       4.04336400       0.00000000 </v>
    <v>      -0.48520400       0.00000000       4.01414600 </v>
   </varray>
   <i name="volume">     65.62643976 </i>
   <varray name="rec_basis" >
    <v>       0.24731882       0.00000000       0.02989430 </v>
    <v>       0.00000000       0.24731882       0.00000000 </v>
    <v>       0.00000000       0.00000000       0.24911899 </v>
   </varray>
  </crystal>
  <varray name="positions" >
   <v>       0.00000000       0.00000000       0.00000000 </v>
   <v>       0.00000000       0.50000000       0.50000000 </v>
   <v>       0.50000000       0.00000000       0.50000000 </v>
   <v>       0.50000000       0.50000000       0.00000000 </v>
  </varray>
 </structure>
 <calculation>
  <scstep>
   <time name="dav">    0.78    0.81</time>
   <time name="total">    0.87    0.91</time>
   <energy>
    <i name="alphaZ">     -0.81889188 </i>
    <i name="ewald">   -294.17001667 </i>
    <i name="hartreedc">     -0.47150259 </i>
    <i name="XCdc">   -104.91149677 </i>
    <i name="pawpsdc">    264.80062850 </i>
    <i name="pawaedc">   -136.98248303 </i>
    <i name="eentropy">     -0.00009818 </i>
    <i name="bandstr">     66.01506318 </i>
    <i name="atom">    214.15382826 </i>
    <i name="e_fr_energy">      7.61503082 </i>
    <i name="e_wo_entrp">      7.61512900 </i>
    <i name="e_0_energy">      7.61506355 </i>
   </energy>
  </scstep>
  <scstep>
   <time name="dav">    0.90    0.90</time>
   <time name="total">    0.90    0.90</time>
   <energy>
    <i name="e_fr_energy">    -14.17764954 </i>
    <i name="e_wo_entrp">    -14.17750662 </i>
    <i name="e_0_energy">    -14.17760190 </i>
   </energy>
  </scstep>
  <scstep>
   <time name="dav">    0.94    0.94</time>
   <time name="total">    0.95    0.95</time>
   <energy>
    <i name="e_fr_energy">    -14.95017785 </i>
    <i name="e_wo_entrp">    -14.95048585 </i>
    <i name="e_0_energy">    -14.95028052 </i>
   </energy>
  </scstep>
  <scstep>
   <time name="dav">    0.84    0.84</time>
   <time name="total">    0.84    0.84</time>
   <energy>
    <i name="e_fr_energy">    -14.95649798 </i>
    <i name="e_wo_entrp">    -14.95680482 </i>
    <i name="e_0_energy">    -14.95660026 </i>
   </energy>
  </scstep>
  <scstep>
   <time name="dav">    0.90    0.90</time>
   <time name="total">    0.97    0.97</time>
   <energy>
    <i name="e_fr_energy">    -14.95655805 </i>
    <i name="e_wo_entrp">    -14.95686481 </i>
    <i name="e_0_energy">    -14.95666030 </i>
   </energy>
  </scstep>
  <scstep>
   <time name="dav">    0.84    0.84</time>
   <time name="total">    0.99    0.99</time>
   <energy>
    <i name="e_fr_energy">    -14.90483006 </i>
    <i name="e_wo_entrp">    -14.90513812 </i>
    <i name="e_0_energy">    -14.90493275 </i>
   </energy>
  </scstep>
  <scstep>
   <time name="dav">    0.82    0.82</time>
   <time name="total">    0.97    0.97</time>
   <energy>
    <i name="e_fr_energy">    -14.86718437 </i>
    <i name="e_wo_entrp">    -14.86745551 </i>
    <i name="e_0_energy">    -14.86727475 </i>
   </energy>
  </scstep>
  <scstep>
   <time name="dav">    0.89    0.89</time>
   <time name="total">    1.04    1.04</time>
   <energy>
    <i name="e_fr_energy">    -14.86708276 </i>
    <i name="e_wo_entrp">    -14.86735523 </i>
    <i name="e_0_energy">    -14.86717358 </i>
   </energy>
  </scstep>
  <scstep>
   <time name="dav">    0.61    0.61</time>
   <time name="total">    0.70    0.70</time>
   <energy>
    <i name="alphaZ">     -0.81889188 </i>
    <i name="ewald">   -294.17001667 </i>
    <i name="hartreedc">     -0.56210237 </i>
    <i name="XCdc">   -104.45433055 </i>
    <i name="pawpsdc">    580.69258983 </i>
    <i name="pawaedc">   -452.94163159 </i>
    <i name="eentropy">      0.00027165 </i>
    <i name="bandstr">     43.23320773 </i>
    <i name="atom">    214.15382826 </i>
    <i name="e_fr_energy">    -14.86707558 </i>
    <i name="e_wo_entrp">    -14.86734723 </i>
    <i name="e_0_energy">    -14.86716613 </i>
   </energy>
  </scstep>
  <structure>
   <crystal>
    <varray name="basis" >
     <v>       4.04336400       0.00000000       0.00000000 </v>
     <v>       0.00000000       4.04336400       0.00000000 </v>
     <v>      -0.48520400       0.00000000       4.01414600 </v>
    </varray>
    <i name="volume">     65.62643976 </i>
    <varray name="rec_basis" >
     <v>       0.24731882       0.00000000       0.02989430 </v>
     <v>       0.00000000       0.24731882       0.00000000 </v>
     <v>       0.00000000       0.00000000       0.24911899 </v>
    </varray>
   </crystal>
   <varray name="positions" >
    <v>       0.00000000       0.00000000       0.00000000 </v>
    <v>       0.00000000       0.50000000       0.50000000 </v>
    <v>       0.50000000       0.00000000       0.50000000 </v>
    <v>       0.50000000       0.50000000       0.00000000 </v>
   </varray>
  </structure>
  <varray name="forces" >
   <v>       0.00000000       0.00000000      -0.00000000 </v>
   <v>       0.00000000       0.00000000      -0.00000000 </v>
   <v>      -0.00000000      -0.00000000       0.00000000 </v>
   <v>       0.00000000      -0.00000000      -0.00000000 </v>
  </varray>
  <varray name="stress" >
   <v>      16.67355412       0.00000000      46.98914967 </v>
   <v>       0.00000000       3.57987241       0.00000000 </v>
   <v>      46.98914967       0.00000000      28.03304053 </v>
  </varray>
  <energy>
   <i name="e_fr_energy">    -14.86707558 </i>
   <i name="e_wo_entrp">    -14.86716613 </i>
   <i name="e_0_energy">      0.00027165 </i>
  </energy>
  <time name="totalsc">    9.19    9.25</time>
  <eigenvalues>
   <array>
    <dimension dim="1">band</dimension>
    <dimension dim="2">kpoint</dimension>
    <dimension dim="3">spin</dimension>
    <field>eigene</field>
    <field>occ</field>
    <set>
     <set comment="spin 1">
      <set comment="kpoint 1">
       <r>   -3.1226    1.0000 </r>
       <r>    5.0852    1.0000 </r>
       <r>    5.1526    1.0000 </r>
       <r>    5.1526    1.0000 </r>
       <r>    6.3710    1.0000 </r>
       <r>    6.5551    1.0000 </r>
       <r>    6.5551    1.0000 </r>
       <r>   11.6749    0.0000 </r>
       <r>   12.6319    0.0000 </r>
       <r>   13.3397    0.0000 </r>
       <r>   13.3397    0.0000 </r>
       <r>   13.7249    0.0000 </r>
      </set>
      <set comment="kpoint 2">
       <r>   -3.0467    1.0000 </r>
       <r>    4.1857    1.0000 </r>
       <r>    5.1546    1.0000 </r>
       <r>    5.1970    1.0000 </r>
       <r>    6.4432    1.0000 </r>
       <r>    6.6510    1.0000 </r>
       <r>    7.6501    1.0000 </r>
       <r>   10.8293    0.0000 </r>
       <r>   12.0586    0.0000 </r>
       <r>   13.2087    0.0000 </r>
       <r>   13.3416    0.0000 </r>
       <r>   13.3726    0.0000 </r>
      </set>
      <set comment="kpoint 3">
       <r>   -2.8194    1.0000 </r>
       <r>    2.8698    1.0000 </r>
       <r>    5.3358    1.0000 </r>
       <r>    5.3630    1.0000 </r>
       <r>    6.6578    1.0000 </r>
       <r>    6.9307    1.0000 </r>
       <r>    9.3481   -0.0000 </r>
       <r>    9.7275    0.0000 </r>
       <r>   10.7336    0.0000 </r>
       <r>   12.1997    0.0000 </r>
       <r>   13.2226    0.0000 </r>
       <r>   13.4086    0.0000 </r>
      </set>
      <set comment="kpoint 4">
       <r>   -2.4413    1.0000 </r>
       <r>    1.6437    1.0000 </r>
       <r>    5.5811    1.0000 </r>
       <r>    5.7104    1.0000 </r>
       <r>    7.0070    1.0000 </r>
       <r>    7.3717    1.0000 </r>
       <r>    8.7236   -0.0000 </r>
       <r>    9.5455    0.0000 </r>
       <r>   11.1461    0.0000 </r>
       <r>   11.2001    0.0000 </r>
       <r>   12.1377    0.0000 </r>
       <r>   13.5916    0.0000 </r>
      </set>
      <set comment="kpoint 5">
       <r>   -1.9137    1.0000 </r>
       <r>    0.5443    1.0000 </r>
       <r>    5.9444    1.0000 </r>
       <r>    6.1972    1.0000 </r>
       <r>    7.4371    1.0000 </r>
       <r>    7.8864    1.0002 </r>
       <r>    7.9237    1.0062 </r>
       <r>    8.4976   -0.0000 </r>
       <r>   10.2106    0.0000 </r>
       <r>   11.0297    0.0000 </r>
       <r>   13.1185    0.0000 </r>
       <r>   13.9039    0.0000 </r>
      </set>
      <set comment="kpoint 6">
       <r>   -1.2385    1.0000 </r>
       <r>   -0.4181    1.0000 </r>
       <r>    6.4325    1.0000 </r>
       <r>    6.8238    1.0000 </r>
       <r>    7.0425    1.0000 </r>
       <r>    7.5905    1.0000 </r>
       <r>    8.0739   -0.0159 </r>
       <r>    8.3494   -0.0000 </r>
       <r>    9.6609    0.0000 </r>
       <r>   10.0858    0.0000 </r>
       <r>   14.3486    0.0000 </r>
       <r>   14.7013    0.0000 </r>
      </set>
      <set comment="kpoint 7">
       <r>   -3.0478    1.0000 </r>
       <r>    4.1002    1.0000 </r>
       <r>    5.2198    1.0000 </r>
       <r>    5.2198    1.0000 </r>
       <r>    6.6273    1.0000 </r>
       <r>    6.6273    1.0000 </r>
       <r>    7.4842    1.0000 </r>
       <r>   11.7395    0.0000 </r>
       <r>   12.0720    0.0000 </r>
       <r>   12.0720    0.0000 </r>
       <r>   12.7066    0.0000 </r>
       <r>   13.2431    0.0000 </r>
      </set>
      <set comment="kpoint 8">
       <r>   -2.9720    1.0000 </r>
       <r>    4.1715    1.0000 </r>
       <r>    4.2555    1.0000 </r>
       <r>    5.2642    1.0000 </r>
       <r>    6.7221    1.0000 </r>
       <r>    7.5540    1.0000 </r>
       <r>    7.7185    1.0000 </r>
       <r>   10.8974    0.0000 </r>
       <r>   11.1264    0.0000 </r>
       <r>   12.1199    0.0000 </r>
       <r>   13.3310    0.0000 </r>
       <r>   13.4438    0.0000 </r>
      </set>
      <set comment="kpoint 9">
       <r>   -2.7448    1.0000 </r>
       <r>    2.9410    1.0000 </r>
       <r>    4.3851    1.0000 </r>
       <r>    5.4031    1.0000 </r>
       <r>    6.9969    1.0000 </r>
       <r>    7.7609    1.0000 </r>
       <r>    9.4095    0.0000 </r>
       <r>    9.7976    0.0000 </r>
       <r>    9.8693    0.0000 </r>
       <r>   12.2719    0.0000 </r>
       <r>   13.1490    0.0000 </r>
       <r>   13.2933    0.0000 </r>
      </set>
      <set comment="kpoint 10">
       <r>   -2.3669    1.0000 </r>
       <r>    1.7158    1.0000 </r>
       <r>    4.7402    1.0000 </r>
       <r>    5.6481    1.0000 </r>
       <r>    7.4096    1.0000 </r>
       <r>    8.0896   -0.0354 </r>
       <r>    8.7362   -0.0000 </r>
       <r>    8.8024   -0.0000 </r>
       <r>   11.2277    0.0000 </r>
       <r>   12.1050    0.0000 </r>
       <r>   12.2131    0.0000 </r>
       <r>   12.5683    0.0000 </r>
      </set>
      <set comment="kpoint 11">
       <r>   -1.8396    1.0000 </r>
       <r>    0.6171    1.0000 </r>
       <r>    5.2350    1.0000 </r>
       <r>    6.0090    1.0000 </r>
       <r>    7.4536    1.0000 </r>
       <r>    7.8745    1.0001 </r>
       <r>    8.2426   -0.0000 </r>
       <r>    8.5868   -0.0000 </r>
       <r>   11.1213    0.0000 </r>
       <r>   11.1344    0.0000 </r>
       <r>   12.6473    0.0000 </r>
       <r>   13.4971    0.0000 </r>
      </set>
      <set comment="kpoint 12">
       <r>   -1.1648    1.0000 </r>
       <r>   -0.3448    1.0000 </r>
       <r>    5.8639    1.0000 </r>
       <r>    6.4451    1.0000 </r>
       <r>    6.6982    1.0000 </r>
       <r>    7.1376    1.0000 </r>
       <r>    8.7974   -0.0000 </r>
       <r>    9.0116   -0.0000 </r>
       <r>   10.2801    0.0000 </r>
       <r>   10.3588    0.0000 </r>
       <r>   13.2499    0.0000 </r>
       <r>   13.8759    0.0000 </r>
      </set>
      <set comment="kpoint 13">
       <r>   -2.8237    1.0000 </r>
       <r>    2.7925    1.0000 </r>
       <r>    5.4208    1.0000 </r>
       <r>    5.4208    1.0000 </r>
       <r>    6.8425    1.0000 </r>
       <r>    6.8425    1.0000 </r>
       <r>    9.1753   -0.0000 </r>
       <r>   10.7728    0.0000 </r>
       <r>   10.7728    0.0000 </r>
       <r>   11.9333    0.0000 </r>
       <r>   12.2389    0.0000 </r>
       <r>   12.2389    0.0000 </r>
      </set>
      <set comment="kpoint 14">
       <r>   -2.7480    1.0000 </r>
       <r>    2.8649    1.0000 </r>
       <r>    4.4645    1.0000 </r>
       <r>    5.4653    1.0000 </r>
       <r>    6.9328    1.0000 </r>
       <r>    7.9207    1.0050 </r>
       <r>    9.2415   -0.0000 </r>
       <r>    9.8890    0.0000 </r>
       <r>   10.8287    0.0000 </r>
       <r>   11.1027    0.0000 </r>
       <r>   12.3284    0.0000 </r>
       <r>   13.2046    0.0000 </r>
      </set>
      <set comment="kpoint 15">
       <r>   -2.5212    1.0000 </r>
       <r>    3.0819    1.0000 </r>
       <r>    3.1544    1.0000 </r>
       <r>    5.6037    1.0000 </r>
       <r>    7.1785    1.0000 </r>
       <r>    8.6742   -0.0000 </r>
       <r>    9.4282    0.0000 </r>
       <r>    9.5742    0.0000 </r>
       <r>   10.0170    0.0000 </r>
       <r>   11.0214    0.0000 </r>
       <r>   12.5935    0.0000 </r>
       <r>   13.5072    0.0000 </r>
      </set>
      <set comment="kpoint 16">
       <r>   -2.1439    1.0000 </r>
       <r>    1.9318    1.0000 </r>
       <r>    3.4427    1.0000 </r>
       <r>    5.8443    1.0000 </r>
       <r>    7.1889    1.0000 </r>
       <r>    7.9511    1.0263 </r>
       <r>    8.9746   -0.0000 </r>
       <r>    9.7804    0.0000 </r>
       <r>   10.9600    0.0000 </r>
       <r>   11.7555    0.0000 </r>
       <r>   12.4469    0.0000 </r>
       <r>   13.0275    0.0000 </r>
      </set>
      <set comment="kpoint 17">
       <r>   -1.6176    1.0000 </r>
       <r>    0.8351    1.0000 </r>
       <r>    3.9457    1.0000 </r>
       <r>    6.1037    1.0000 </r>
       <r>    6.3992    1.0000 </r>
       <r>    8.0986   -0.0310 </r>
       <r>    8.4047   -0.0000 </r>
       <r>   10.1177    0.0000 </r>
       <r>   11.4562    0.0000 </r>
       <r>   11.4846    0.0000 </r>
       <r>   12.7131    0.0000 </r>
       <r>   13.3674    0.0000 </r>
      </set>
      <set comment="kpoint 18">
       <r>   -0.9438    1.0000 </r>
       <r>   -0.1252    1.0000 </r>
       <r>    4.5877    1.0000 </r>
       <r>    5.3602    1.0000 </r>
       <r>    6.7329    1.0000 </r>
       <r>    7.3476    1.0000 </r>
       <r>    9.1258   -0.0000 </r>
       <r>    9.8969    0.0000 </r>
       <r>   11.2608    0.0000 </r>
       <r>   11.8758    0.0000 </r>
       <r>   12.0002    0.0000 </r>
       <r>   12.6239    0.0000 </r>
      </set>
      <set comment="kpoint 19">
       <r>   -2.4511    1.0000 </r>
       <r>    1.5796    1.0000 </r>
       <r>    5.7534    1.0000 </r>
       <r>    5.7534    1.0000 </r>
       <r>    7.1957    1.0000 </r>
       <r>    7.1957    1.0000 </r>
       <r>    9.6136    0.0000 </r>
       <r>    9.6136    0.0000 </r>
       <r>   11.0204    0.0000 </r>
       <r>   11.1807    0.0000 </r>
       <r>   11.1807    0.0000 </r>
       <r>   12.2565    0.0000 </r>
      </set>
      <set comment="kpoint 20">
       <r>   -2.3756    1.0000 </r>
       <r>    1.6528    1.0000 </r>
       <r>    4.8114    1.0000 </r>
       <r>    5.7970    1.0000 </r>
       <r>    7.2667    1.0000 </r>
       <r>    8.2385   -0.0000 </r>
       <r>    8.7661   -0.0000 </r>
       <r>    9.6883    0.0000 </r>
       <r>   11.0644    0.0000 </r>
       <r>   11.2744    0.0000 </r>
       <r>   11.4630    0.0000 </r>
       <r>   12.1699    0.0000 </r>
      </set>
      <set comment="kpoint 21">
       <r>   -2.1493    1.0000 </r>
       <r>    1.8723    1.0000 </r>
       <r>    3.5090    1.0000 </r>
       <r>    5.9281    1.0000 </r>
       <r>    7.1882    1.0000 </r>
       <r>    7.8823    1.0002 </r>
       <r>    9.5327    0.0000 </r>
       <r>   10.2187    0.0000 </r>
       <r>   10.3287    0.0000 </r>
       <r>   11.2863    0.0000 </r>
       <r>   11.5589    0.0000 </r>
       <r>   13.7284    0.0000 </r>
      </set>
      <set comment="kpoint 22">
       <r>   -1.7731    1.0000 </r>
       <r>    2.2371    1.0000 </r>
       <r>    2.2910    1.0000 </r>
       <r>    6.0007    1.0000 </r>
       <r>    6.3646    1.0000 </r>
       <r>    8.1574   -0.0007 </r>
       <r>    9.3294   -0.0000 </r>
       <r>    9.9545    0.0000 </r>
       <r>   11.5101    0.0000 </r>
       <r>   11.7257    0.0000 </r>
       <r>   12.1882    0.0000 </r>
       <r>   12.8961    0.0000 </r>
      </set>
      <set comment="kpoint 23">
       <r>   -1.2482    1.0000 </r>
       <r>    1.1977    1.0000 </r>
       <r>    2.7459    1.0000 </r>
       <r>    5.0993    1.0000 </r>
       <r>    6.5922    1.0000 </r>
       <r>    8.4471   -0.0000 </r>
       <r>    8.7529   -0.0000 </r>
       <r>   10.3496    0.0000 </r>
       <r>   11.2622    0.0000 </r>
       <r>   12.2221    0.0000 </r>
       <r>   12.4918    0.0000 </r>
       <r>   12.5109    0.0000 </r>
      </set>
      <set comment="kpoint 24">
       <r>   -0.5763    1.0000 </r>
       <r>    0.2401    1.0000 </r>
       <r>    3.3966    1.0000 </r>
       <r>    4.1848    1.0000 </r>
       <r>    7.0746    1.0000 </r>
       <r>    7.6943    1.0000 </r>
       <r>    9.5082    0.0000 </r>
       <r>   10.3838    0.0000 </r>
       <r>   10.8516    0.0000 </r>
       <r>   11.4747    0.0000 </r>
       <r>   12.9430    0.0000 </r>
       <r>   13.2695    0.0000 </r>
      </set>
      <set comment="kpoint 25">
       <r>   -1.9310    1.0000 </r>
       <r>    0.4939    1.0000 </r>
       <r>    6.2088    1.0000 </r>
       <r>    6.2088    1.0000 </r>
       <r>    7.6710    1.0000 </r>
       <r>    7.6710    1.0000 </r>
       <r>    8.6064   -0.0000 </r>
       <r>    8.6064   -0.0000 </r>
       <r>   10.2070    0.0000 </r>
       <r>   10.2070    0.0000 </r>
       <r>   12.7093    0.0000 </r>
       <r>   12.9432    0.0000 </r>
      </set>
      <set comment="kpoint 26">
       <r>   -1.8558    1.0000 </r>
       <r>    0.5677    1.0000 </r>
       <r>    5.2926    1.0000 </r>
       <r>    6.2420    1.0000 </r>
       <r>    7.4766    1.0000 </r>
       <r>    8.0487    0.1747 </r>
       <r>    8.4097   -0.0000 </r>
       <r>    8.9407   -0.0000 </r>
       <r>   10.3203    0.0000 </r>
       <r>   11.1917    0.0000 </r>
       <r>   11.8981    0.0000 </r>
       <r>   13.0455    0.0000 </r>
      </set>
      <set comment="kpoint 27">
       <r>   -1.6304    1.0000 </r>
       <r>    0.7891    1.0000 </r>
       <r>    4.0030    1.0000 </r>
       <r>    6.1393    1.0000 </r>
       <r>    6.6058    1.0000 </r>
       <r>    8.1911   -0.0000 </r>
       <r>    8.6834   -0.0000 </r>
       <r>   10.2335    0.0000 </r>
       <r>   10.8148    0.0000 </r>
       <r>   10.8524    0.0000 </r>
       <r>   12.8107    0.0000 </r>
       <r>   13.0615    0.0000 </r>
      </set>
      <set comment="kpoint 28">
       <r>   -1.2556    1.0000 </r>
       <r>    1.1571    1.0000 </r>
       <r>    2.7920    1.0000 </r>
       <r>    5.1089    1.0000 </r>
       <r>    6.7136    1.0000 </r>
       <r>    8.6328   -0.0000 </r>
       <r>    8.9532   -0.0000 </r>
       <r>    9.8135    0.0000 </r>
       <r>   10.8960    0.0000 </r>
       <r>   12.0743    0.0000 </r>
       <r>   12.4736    0.0000 </r>
       <r>   12.8658    0.0000 </r>
      </set>
      <set comment="kpoint 29">
       <r>   -0.7327    1.0000 </r>
       <r>    1.6706    1.0000 </r>
       <r>    1.7036    1.0000 </r>
       <r>    4.0570    1.0000 </r>
       <r>    7.0680    1.0000 </r>
       <r>    8.9316   -0.0000 </r>
       <r>    9.2469   -0.0000 </r>
       <r>    9.3301   -0.0000 </r>
       <r>   11.2004    0.0000 </r>
       <r>   11.5256    0.0000 </r>
       <r>   11.9056    0.0000 </r>
       <r>   14.1905    0.0000 </r>
      </set>
      <set comment="kpoint 30">
       <r>   -0.0634    1.0000 </r>
       <r>    0.7499    1.0000 </r>
       <r>    2.3276    1.0000 </r>
       <r>    3.1249    1.0000 </r>
       <r>    7.5573    1.0000 </r>
       <r>    8.1786   -0.0001 </r>
       <r>    9.8275    0.0000 </r>
       <r>   10.0112    0.0000 </r>
       <r>   10.4505    0.0000 </r>
       <r>   10.9081    0.0000 </r>
       <r>   12.2851    0.0000 </r>
       <r>   13.1772    0.0000 </r>
      </set>
      <set comment="kpoint 31">
       <r>   -1.2652    1.0000 </r>
       <r>   -0.4559    1.0000 </r>
       <r>    6.7274    1.0000 </r>
       <r>    6.7274    1.0000 </r>
       <r>    7.8118    1.0000 </r>
       <r>    7.8118    1.0000 </r>
       <r>    8.1858   -0.0000 </r>
       <r>    8.1858   -0.0000 </r>
       <r>    9.4370    0.0000 </r>
       <r>    9.4370    0.0000 </r>
       <r>   13.2919    0.0000 </r>
       <r>   14.0048    0.0000 </r>
      </set>
      <set comment="kpoint 32">
       <r>   -1.1903    1.0000 </r>
       <r>   -0.3815    1.0000 </r>
       <r>    5.8955    1.0000 </r>
       <r>    6.4959    1.0000 </r>
       <r>    7.1095    1.0000 </r>
       <r>    7.6994    1.0000 </r>
       <r>    8.4815   -0.0000 </r>
       <r>    9.0287   -0.0000 </r>
       <r>    9.8088    0.0000 </r>
       <r>   10.3443    0.0000 </r>
       <r>   12.5087    0.0000 </r>
       <r>   13.2477    0.0000 </r>
      </set>
      <set comment="kpoint 33">
       <r>   -0.9661    1.0000 </r>
       <r>   -0.1586    1.0000 </r>
       <r>    4.6326    1.0000 </r>
       <r>    5.3864    1.0000 </r>
       <r>    7.0882    1.0000 </r>
       <r>    7.8213    1.0000 </r>
       <r>    8.7983   -0.0000 </r>
       <r>    9.5387    0.0000 </r>
       <r>   11.2481    0.0000 </r>
       <r>   11.4309    0.0000 </r>
       <r>   11.9617    0.0000 </r>
       <r>   12.1802    0.0000 </r>
      </set>
      <set comment="kpoint 34">
       <r>   -0.5931    1.0000 </r>
       <r>    0.2121    1.0000 </r>
       <r>    3.4325    1.0000 </r>
       <r>    4.2085    1.0000 </r>
       <r>    7.3213    1.0000 </r>
       <r>    8.0707   -0.0045 </r>
       <r>    9.2607   -0.0000 </r>
       <r>   10.0218    0.0000 </r>
       <r>   10.4329    0.0000 </r>
       <r>   11.1871    0.0000 </r>
       <r>   13.0541    0.0000 </r>
       <r>   13.6510    0.0000 </r>
      </set>
      <set comment="kpoint 35">
       <r>   -0.0727    1.0000 </r>
       <r>    0.7294    1.0000 </r>
       <r>    2.3510    1.0000 </r>
       <r>    3.1371    1.0000 </r>
       <r>    7.6857    1.0000 </r>
       <r>    8.4406   -0.0000 </r>
       <r>    9.5527    0.0000 </r>
       <r>    9.8787    0.0000 </r>
       <r>   10.3095    0.0000 </r>
       <r>   10.6416    0.0000 </r>
       <r>   12.5619    0.0000 </r>
       <r>   13.3210    0.0000 </r>
      </set>
      <set comment="kpoint 36">
       <r>    0.5933    1.0000 </r>
       <r>    1.3914    1.0000 </r>
       <r>    1.4025    1.0000 </r>
       <r>    2.1954    1.0000 </r>
       <r>    8.1780   -0.0001 </r>
       <r>    8.8002   -0.0000 </r>
       <r>    8.9353   -0.0000 </r>
       <r>    9.5580    0.0000 </r>
       <r>   10.6440    0.0000 </r>
       <r>   11.4045    0.0000 </r>
       <r>   11.5446    0.0000 </r>
       <r>   12.3025    0.0000 </r>
      </set>
      <set comment="kpoint 37">
       <r>   -2.9526    1.0000 </r>
       <r>    4.1001    1.0000 </r>
       <r>    4.1001    1.0000 </r>
       <r>    5.2407    1.0000 </r>
       <r>    6.5275    1.0000 </r>
       <r>    7.8977    1.0007 </r>
       <r>    7.8977    1.0007 </r>
       <r>   11.8224    0.0000 </r>
       <r>   11.9616    0.0000 </r>
       <r>   11.9616    0.0000 </r>
       <r>   12.1122    0.0000 </r>
       <r>   13.1796    0.0000 </r>
      </set>
      <set comment="kpoint 38">
       <r>   -2.7072    1.0000 </r>
       <r>    2.7899    1.0000 </r>
       <r>    4.1546    1.0000 </r>
       <r>    5.4657    1.0000 </r>
       <r>    6.7497    1.0000 </r>
       <r>    8.2745   -0.0000 </r>
       <r>    9.6026    0.0000 </r>
       <r>   10.6525    0.0000 </r>
       <r>   10.7721    0.0000 </r>
       <r>   11.9535    0.0000 </r>
       <r>   12.0047    0.0000 </r>
       <r>   12.1705    0.0000 </r>
      </set>
      <set comment="kpoint 39">
       <r>   -2.3113    1.0000 </r>
       <r>    1.5780    1.0000 </r>
       <r>    4.3506    1.0000 </r>
       <r>    5.8299    1.0000 </r>
       <r>    7.0907    1.0000 </r>
       <r>    8.7435   -0.0000 </r>
       <r>    9.4812    0.0000 </r>
       <r>    9.6590    0.0000 </r>
       <r>   11.0947    0.0000 </r>
       <r>   11.1748    0.0000 </r>
       <r>   11.4165    0.0000 </r>
       <r>   12.1873    0.0000 </r>
      </set>
      <set comment="kpoint 40">
       <r>   -1.7662    1.0000 </r>
       <r>    0.4948    1.0000 </r>
       <r>    4.6886    1.0000 </r>
       <r>    6.3335    1.0000 </r>
       <r>    7.4521    1.0000 </r>
       <r>    8.4502   -0.0000 </r>
       <r>    8.7540   -0.0000 </r>
       <r>    9.1015   -0.0000 </r>
       <r>   10.1879    0.0000 </r>
       <r>   10.5019    0.0000 </r>
       <r>   12.5086    0.0000 </r>
       <r>   13.0665    0.0000 </r>
      </set>
      <set comment="kpoint 41">
       <r>   -1.0740    1.0000 </r>
       <r>   -0.4506    1.0000 </r>
       <r>    5.1683    1.0000 </r>
       <r>    6.9769    1.0000 </r>
       <r>    7.2680    1.0000 </r>
       <r>    7.5599    1.0000 </r>
       <r>    8.5708   -0.0000 </r>
       <r>    8.7759   -0.0000 </r>
       <r>    9.4573    0.0000 </r>
       <r>   10.7576    0.0000 </r>
       <r>   12.9678    0.0000 </r>
       <r>   13.9864    0.0000 </r>
      </set>
      <set comment="kpoint 42">
       <r>   -1.2536    1.0000 </r>
       <r>   -0.2370    1.0000 </r>
       <r>    5.7885    1.0000 </r>
       <r>    6.5590    1.0000 </r>
       <r>    6.8100    1.0000 </r>
       <r>    7.7606    1.0000 </r>
       <r>    8.1311   -0.0063 </r>
       <r>    8.5273   -0.0000 </r>
       <r>    9.4989    0.0000 </r>
       <r>   11.5883    0.0000 </r>
       <r>   13.5638    0.0000 </r>
       <r>   14.6668    0.0000 </r>
      </set>
      <set comment="kpoint 43">
       <r>   -1.9109    1.0000 </r>
       <r>    0.7412    1.0000 </r>
       <r>    5.8573    1.0000 </r>
       <r>    6.2001    1.0000 </r>
       <r>    6.5454    1.0000 </r>
       <r>    7.5382    1.0000 </r>
       <r>    8.0984   -0.0311 </r>
       <r>    8.6848   -0.0000 </r>
       <r>   10.3108    0.0000 </r>
       <r>   12.6226    0.0000 </r>
       <r>   13.0308    0.0000 </r>
       <r>   13.8552    0.0000 </r>
      </set>
      <set comment="kpoint 44">
       <r>   -2.4204    1.0000 </r>
       <r>    1.8551    1.0000 </r>
       <r>    5.2527    1.0000 </r>
       <r>    5.7300    1.0000 </r>
       <r>    7.0378    1.0000 </r>
       <r>    7.4624    1.0000 </r>
       <r>    7.7681    1.0000 </r>
       <r>    9.7498    0.0000 </r>
       <r>   11.0701    0.0000 </r>
       <r>   11.3069    0.0000 </r>
       <r>   13.1943    0.0000 </r>
       <r>   13.7682    0.0000 </r>
      </set>
      <set comment="kpoint 45">
       <r>   -2.7802    1.0000 </r>
       <r>    3.0932    1.0000 </r>
       <r>    4.7667    1.0000 </r>
       <r>    5.3992    1.0000 </r>
       <r>    6.7039    1.0000 </r>
       <r>    7.5818    1.0000 </r>
       <r>    8.4773   -0.0000 </r>
       <r>    9.2192   -0.0000 </r>
       <r>   10.9549    0.0000 </r>
       <r>   12.3788    0.0000 </r>
       <r>   12.6746    0.0000 </r>
       <r>   13.6545    0.0000 </r>
      </set>
      <set comment="kpoint 46">
       <r>   -2.9892    1.0000 </r>
       <r>    4.4091    1.0000 </r>
       <r>    4.4091    1.0000 </r>
       <r>    5.2074    1.0000 </r>
       <r>    6.5019    1.0000 </r>
       <r>    7.5431    1.0000 </r>
       <r>    7.5431    1.0000 </r>
       <r>    9.6175    0.0000 </r>
       <r>   12.2961    0.0000 </r>
       <r>   12.2961    0.0000 </r>
       <r>   13.3687    0.0000 </r>
       <r>   13.3687    0.0000 </r>
      </set>
      <set comment="kpoint 47">
       <r>   -2.8779    1.0000 </r>
       <r>    4.1702    1.0000 </r>
       <r>    4.1702    1.0000 </r>
       <r>    4.2593    1.0000 </r>
       <r>    7.6347    1.0000 </r>
       <r>    7.9608    1.0339 </r>
       <r>    7.9608    1.0339 </r>
       <r>   11.0559    0.0000 </r>
       <r>   11.0559    0.0000 </r>
       <r>   11.8870    0.0000 </r>
       <r>   12.1871    0.0000 </r>
       <r>   13.9179    0.0000 </r>
      </set>
      <set comment="kpoint 48">
       <r>   -2.6326    1.0000 </r>
       <r>    2.8613    1.0000 </r>
       <r>    4.2249    1.0000 </r>
       <r>    4.4890    1.0000 </r>
       <r>    7.8461    1.0000 </r>
       <r>    8.3108   -0.0000 </r>
       <r>    9.6359    0.0000 </r>
       <r>    9.8364    0.0000 </r>
       <r>   10.8468    0.0000 </r>
       <r>   11.1560    0.0000 </r>
       <r>   12.0241    0.0000 </r>
       <r>   13.1058    0.0000 </r>
      </set>
      <set comment="kpoint 49">
       <r>   -2.2370    1.0000 </r>
       <r>    1.6502    1.0000 </r>
       <r>    4.4209    1.0000 </r>
       <r>    4.8593    1.0000 </r>
       <r>    8.1534   -0.0011 </r>
       <r>    8.3706   -0.0000 </r>
       <r>    9.1292   -0.0000 </r>
       <r>    9.7564    0.0000 </r>
       <r>   11.0307    0.0000 </r>
       <r>   11.1715    0.0000 </r>
       <r>   11.8186    0.0000 </r>
       <r>   12.0852    0.0000 </r>
      </set>
      <set comment="kpoint 50">
       <r>   -1.6922    1.0000 </r>
       <r>    0.5676    1.0000 </r>
       <r>    4.7587    1.0000 </r>
       <r>    5.3664    1.0000 </r>
       <r>    7.4952    1.0000 </r>
       <r>    8.2377   -0.0000 </r>
       <r>    9.1033   -0.0000 </r>
       <r>    9.5420    0.0000 </r>
       <r>   10.2872    0.0000 </r>
       <r>   11.2099    0.0000 </r>
       <r>   11.5222    0.0000 </r>
       <r>   13.5668    0.0000 </r>
      </set>
      <set comment="kpoint 51">
       <r>   -1.0003    1.0000 </r>
       <r>   -0.3773    1.0000 </r>
       <r>    5.2375    1.0000 </r>
       <r>    5.9941    1.0000 </r>
       <r>    6.6194    1.0000 </r>
       <r>    7.5509    1.0000 </r>
       <r>    9.1660   -0.0000 </r>
       <r>    9.7020    0.0000 </r>
       <r>    9.8290    0.0000 </r>
       <r>   10.9690    0.0000 </r>
       <r>   12.0136    0.0000 </r>
       <r>   14.3881    0.0000 </r>
      </set>
      <set comment="kpoint 52">
       <r>   -1.1799    1.0000 </r>
       <r>   -0.1638    1.0000 </r>
       <r>    5.8078    1.0000 </r>
       <r>    5.9151    1.0000 </r>
       <r>    6.4579    1.0000 </r>
       <r>    7.0705    1.0000 </r>
       <r>    8.6753   -0.0000 </r>
       <r>    9.1803   -0.0000 </r>
       <r>   10.4079    0.0000 </r>
       <r>   11.6817    0.0000 </r>
       <r>   12.6238    0.0000 </r>
       <r>   13.5260    0.0000 </r>
      </set>
      <set comment="kpoint 53">
       <r>   -1.8368    1.0000 </r>
       <r>    0.8138    1.0000 </r>
       <r>    5.2412    1.0000 </r>
       <r>    5.9097    1.0000 </r>
       <r>    6.6218    1.0000 </r>
       <r>    7.7990    1.0000 </r>
       <r>    8.2245   -0.0000 </r>
       <r>    8.6121   -0.0000 </r>
       <r>   11.2804    0.0000 </r>
       <r>   12.6982    0.0000 </r>
       <r>   12.7537    0.0000 </r>
       <r>   13.1414    0.0000 </r>
      </set>
      <set comment="kpoint 54">
       <r>   -2.3460    1.0000 </r>
       <r>    1.9270    1.0000 </r>
       <r>    4.7620    1.0000 </r>
       <r>    5.3175    1.0000 </r>
       <r>    7.5127    1.0000 </r>
       <r>    7.8340    1.0000 </r>
       <r>    8.1513   -0.0013 </r>
       <r>    8.8968   -0.0000 </r>
       <r>   11.1289    0.0000 </r>
       <r>   12.1892    0.0000 </r>
       <r>   12.2813    0.0000 </r>
       <r>   13.8385    0.0000 </r>
      </set>
      <set comment="kpoint 55">
       <r>   -2.7056    1.0000 </r>
       <r>    3.1641    1.0000 </r>
       <r>    4.4231    1.0000 </r>
       <r>    4.8347    1.0000 </r>
       <r>    7.6520    1.0000 </r>
       <r>    7.8053    1.0000 </r>
       <r>    8.5492   -0.0000 </r>
       <r>    9.2862   -0.0000 </r>
       <r>   10.0734    0.0000 </r>
       <r>   11.6954    0.0000 </r>
       <r>   13.3299    0.0000 </r>
       <r>   14.0318    0.0000 </r>
      </set>
      <set comment="kpoint 56">
       <r>   -2.9145    1.0000 </r>
       <r>    4.2261    1.0000 </r>
       <r>    4.4783    1.0000 </r>
       <r>    4.4783    1.0000 </r>
       <r>    7.6111    1.0000 </r>
       <r>    7.6132    1.0000 </r>
       <r>    7.6132    1.0000 </r>
       <r>    9.6869    0.0000 </r>
       <r>   11.3413    0.0000 </r>
       <r>   11.3413    0.0000 </r>
       <r>   13.9004    0.0000 </r>
       <r>   13.9004    0.0000 </r>
      </set>
      <set comment="kpoint 57">
       <r>   -2.6541    1.0000 </r>
       <r>    2.9543    1.0000 </r>
       <r>    4.3804    1.0000 </r>
       <r>    4.3804    1.0000 </r>
       <r>    8.1333   -0.0054 </r>
       <r>    8.1333   -0.0054 </r>
       <r>    9.3133   -0.0000 </r>
       <r>    9.8557    0.0000 </r>
       <r>    9.8557    0.0000 </r>
       <r>   12.0809    0.0000 </r>
       <r>   12.4149    0.0000 </r>
       <r>   13.4305    0.0000 </r>
      </set>
      <set comment="kpoint 58">
       <r>   -2.4092    1.0000 </r>
       <r>    3.0752    1.0000 </r>
       <r>    3.1880    1.0000 </r>
       <r>    4.4356    1.0000 </r>
       <r>    8.1656   -0.0003 </r>
       <r>    8.9678   -0.0000 </r>
       <r>    9.4765    0.0000 </r>
       <r>    9.4890    0.0000 </r>
       <r>   10.2949    0.0000 </r>
       <r>   11.0835    0.0000 </r>
       <r>   12.2402    0.0000 </r>
       <r>   13.7870    0.0000 </r>
      </set>
      <set comment="kpoint 59">
       <r>   -2.0142    1.0000 </r>
       <r>    1.8665    1.0000 </r>
       <r>    3.5649    1.0000 </r>
       <r>    4.6315    1.0000 </r>
       <r>    7.2534    1.0000 </r>
       <r>    9.2482   -0.0000 </r>
       <r>    9.5062    0.0000 </r>
       <r>    9.9207    0.0000 </r>
       <r>   10.2451    0.0000 </r>
       <r>   11.4227    0.0000 </r>
       <r>   11.9287    0.0000 </r>
       <r>   13.6109    0.0000 </r>
      </set>
      <set comment="kpoint 60">
       <r>   -1.4704    1.0000 </r>
       <r>    0.7857    1.0000 </r>
       <r>    4.0825    1.0000 </r>
       <r>    4.9677    1.0000 </r>
       <r>    6.2485    1.0000 </r>
       <r>    8.7030   -0.0000 </r>
       <r>    9.8646    0.0000 </r>
       <r>   10.1570    0.0000 </r>
       <r>   10.2905    0.0000 </r>
       <r>   10.8520    0.0000 </r>
       <r>   12.7081    0.0000 </r>
       <r>   13.8860    0.0000 </r>
      </set>
      <set comment="kpoint 61">
       <r>   -0.7796    1.0000 </r>
       <r>   -0.1576    1.0000 </r>
       <r>    4.7349    1.0000 </r>
       <r>    5.3117    1.0000 </r>
       <r>    5.4866    1.0000 </r>
       <r>    7.7948    1.0000 </r>
       <r>    9.5356    0.0000 </r>
       <r>   10.5414    0.0000 </r>
       <r>   10.7733    0.0000 </r>
       <r>   11.2736    0.0000 </r>
       <r>   11.9838    0.0000 </r>
       <r>   13.1043    0.0000 </r>
      </set>
      <set comment="kpoint 62">
       <r>   -0.9588    1.0000 </r>
       <r>    0.0555    1.0000 </r>
       <r>    4.5774    1.0000 </r>
       <r>    5.4960    1.0000 </r>
       <r>    6.0749    1.0000 </r>
       <r>    6.9983    1.0000 </r>
       <r>    8.9060   -0.0000 </r>
       <r>   10.7037    0.0000 </r>
       <r>   11.3852    0.0000 </r>
       <r>   12.0048    0.0000 </r>
       <r>   12.0282    0.0000 </r>
       <r>   12.2537    0.0000 </r>
      </set>
      <set comment="kpoint 63">
       <r>   -1.6148    1.0000 </r>
       <r>    1.0314    1.0000 </r>
       <r>    3.9507    1.0000 </r>
       <r>    5.9648    1.0000 </r>
       <r>    6.7356    1.0000 </r>
       <r>    6.8325    1.0000 </r>
       <r>    8.4149   -0.0000 </r>
       <r>   10.2567    0.0000 </r>
       <r>   11.5190    0.0000 </r>
       <r>   12.1280    0.0000 </r>
       <r>   12.8754    0.0000 </r>
       <r>   12.9327    0.0000 </r>
      </set>
      <set comment="kpoint 64">
       <r>   -2.1231    1.0000 </r>
       <r>    2.1424    1.0000 </r>
       <r>    3.4640    1.0000 </r>
       <r>    5.5039    1.0000 </r>
       <r>    7.6331    1.0000 </r>
       <r>    7.7264    1.0000 </r>
       <r>    8.0933   -0.0343 </r>
       <r>    9.8210    0.0000 </r>
       <r>   10.8996    0.0000 </r>
       <r>   11.3294    0.0000 </r>
       <r>   12.9990    0.0000 </r>
       <r>   13.3775    0.0000 </r>
      </set>
      <set comment="kpoint 65">
       <r>   -2.4821    1.0000 </r>
       <r>    3.1201    1.0000 </r>
       <r>    3.3764    1.0000 </r>
       <r>    5.0366    1.0000 </r>
       <r>    7.8591    1.0000 </r>
       <r>    8.7473   -0.0000 </r>
       <r>    8.8455   -0.0000 </r>
       <r>    9.4838    0.0000 </r>
       <r>    9.5011    0.0000 </r>
       <r>   10.4394    0.0000 </r>
       <r>   13.1667    0.0000 </r>
       <r>   13.9907    0.0000 </r>
      </set>
      <set comment="kpoint 66">
       <r>   -2.6906    1.0000 </r>
       <r>    2.9202    1.0000 </r>
       <r>    4.6851    1.0000 </r>
       <r>    4.6851    1.0000 </r>
       <r>    7.8222    1.0000 </r>
       <r>    7.8222    1.0000 </r>
       <r>    9.2960   -0.0000 </r>
       <r>    9.8988    0.0000 </r>
       <r>   10.0916    0.0000 </r>
       <r>   10.0916    0.0000 </r>
       <r>   13.1145    0.0000 </r>
       <r>   13.1145    0.0000 </r>
      </set>
      <set comment="kpoint 67">
       <r>   -2.2819    1.0000 </r>
       <r>    1.7435    1.0000 </r>
       <r>    4.7295    1.0000 </r>
       <r>    4.7295    1.0000 </r>
       <r>    8.1972   -0.0000 </r>
       <r>    8.1972   -0.0000 </r>
       <r>    8.9895   -0.0000 </r>
       <r>    8.9895   -0.0000 </r>
       <r>   11.1214    0.0000 </r>
       <r>   12.4043    0.0000 </r>
       <r>   12.4096    0.0000 </r>
       <r>   12.4096    0.0000 </r>
      </set>
      <set comment="kpoint 68">
       <r>   -2.0377    1.0000 </r>
       <r>    1.9800    1.0000 </r>
       <r>    3.4308    1.0000 </r>
       <r>    4.7854    1.0000 </r>
       <r>    7.2429    1.0000 </r>
       <r>    8.5566   -0.0000 </r>
       <r>    9.0877   -0.0000 </r>
       <r>   10.4097    0.0000 </r>
       <r>   11.0327    0.0000 </r>
       <r>   11.6702    0.0000 </r>
       <r>   12.6401    0.0000 </r>
       <r>   12.7903    0.0000 </r>
      </set>
      <set comment="kpoint 69">
       <r>   -1.6438    1.0000 </r>
       <r>    2.2262    1.0000 </r>
       <r>    2.3616    1.0000 </r>
       <r>    4.9794    1.0000 </r>
       <r>    6.1152    1.0000 </r>
       <r>    8.7947   -0.0000 </r>
       <r>    9.5852    0.0000 </r>
       <r>   10.1138    0.0000 </r>
       <r>   11.4199    0.0000 </r>
       <r>   12.1703    0.0000 </r>
       <r>   12.2502    0.0000 </r>
       <r>   13.3083    0.0000 </r>
      </set>
      <set comment="kpoint 70">
       <r>   -1.1014    1.0000 </r>
       <r>    1.1486    1.0000 </r>
       <r>    2.8864    1.0000 </r>
       <r>    5.0482    1.0000 </r>
       <r>    5.3478    1.0000 </r>
       <r>    9.0898   -0.0000 </r>
       <r>    9.1432   -0.0000 </r>
       <r>   10.2431    0.0000 </r>
       <r>   10.6800    0.0000 </r>
       <r>   12.4658    0.0000 </r>
       <r>   12.8981    0.0000 </r>
       <r>   13.9530    0.0000 </r>
      </set>
      <set comment="kpoint 71">
       <r>   -0.4126    1.0000 </r>
       <r>    0.2078    1.0000 </r>
       <r>    3.5512    1.0000 </r>
       <r>    4.1576    1.0000 </r>
       <r>    5.8070    1.0000 </r>
       <r>    8.1484   -0.0017 </r>
       <r>    9.6223    0.0000 </r>
       <r>    9.9090    0.0000 </r>
       <r>   11.0208    0.0000 </r>
       <r>   11.9415    0.0000 </r>
       <r>   13.0528    0.0000 </r>
       <r>   13.6230    0.0000 </r>
      </set>
      <set comment="kpoint 72">
       <r>   -0.5913    1.0000 </r>
       <r>    0.4202    1.0000 </r>
       <r>    3.3843    1.0000 </r>
       <r>    4.3484    1.0000 </r>
       <r>    6.4249    1.0000 </r>
       <r>    7.3159    1.0000 </r>
       <r>    9.2636   -0.0000 </r>
       <r>   10.2354    0.0000 </r>
       <r>   11.0932    0.0000 </r>
       <r>   11.8112    0.0000 </r>
       <r>   12.9825    0.0000 </r>
       <r>   13.0881    0.0000 </r>
      </set>
      <set comment="kpoint 73">
       <r>   -1.2454    1.0000 </r>
       <r>    1.3932    1.0000 </r>
       <r>    2.7499    1.0000 </r>
       <r>    5.2423    1.0000 </r>
       <r>    6.6351    1.0000 </r>
       <r>    7.1823    1.0000 </r>
       <r>    8.7667   -0.0000 </r>
       <r>   10.3618    0.0000 </r>
       <r>   10.9818    0.0000 </r>
       <r>   11.9836    0.0000 </r>
       <r>   12.4334    0.0000 </r>
       <r>   13.3841    0.0000 </r>
      </set>
      <set comment="kpoint 74">
       <r>   -1.7523    1.0000 </r>
       <r>    2.2580    1.0000 </r>
       <r>    2.5004    1.0000 </r>
       <r>    5.7256    1.0000 </r>
       <r>    6.6160    1.0000 </r>
       <r>    8.0752   -0.0195 </r>
       <r>    8.4226   -0.0000 </r>
       <r>    9.7544    0.0000 </r>
       <r>   11.4970    0.0000 </r>
       <r>   11.6422    0.0000 </r>
       <r>   11.8581    0.0000 </r>
       <r>   12.4879    0.0000 </r>
      </set>
      <set comment="kpoint 75">
       <r>   -2.1104    1.0000 </r>
       <r>    1.9105    1.0000 </r>
       <r>    3.7288    1.0000 </r>
       <r>    5.3632    1.0000 </r>
       <r>    7.6817    1.0000 </r>
       <r>    8.2343   -0.0000 </r>
       <r>    9.0964   -0.0000 </r>
       <r>    9.2772   -0.0000 </r>
       <r>    9.8058    0.0000 </r>
       <r>   11.3418    0.0000 </r>
       <r>   12.1468    0.0000 </r>
       <r>   12.8568    0.0000 </r>
      </set>
      <set comment="kpoint 76">
       <r>   -2.3183    1.0000 </r>
       <r>    1.7086    1.0000 </r>
       <r>    5.0269    1.0000 </r>
       <r>    5.0269    1.0000 </r>
       <r>    8.1654   -0.0003 </r>
       <r>    8.1654   -0.0003 </r>
       <r>    8.9414   -0.0000 </r>
       <r>    8.9414   -0.0000 </r>
       <r>   10.2279    0.0000 </r>
       <r>   11.1596    0.0000 </r>
       <r>   12.0772    0.0000 </r>
       <r>   12.0772    0.0000 </r>
      </set>
      <set comment="kpoint 77">
       <r>   -1.7625    1.0000 </r>
       <r>    0.6593    1.0000 </r>
       <r>    5.2151    1.0000 </r>
       <r>    5.2151    1.0000 </r>
       <r>    7.4691    1.0000 </r>
       <r>    7.4691    1.0000 </r>
       <r>    9.1737   -0.0000 </r>
       <r>    9.1737   -0.0000 </r>
       <r>   11.4317    0.0000 </r>
       <r>   11.4317    0.0000 </r>
       <r>   12.7976    0.0000 </r>
       <r>   12.8574    0.0000 </r>
      </set>
      <set comment="kpoint 78">
       <r>   -1.5192    1.0000 </r>
       <r>    0.8980    1.0000 </r>
       <r>    3.9268    1.0000 </r>
       <r>    5.2692    1.0000 </r>
       <r>    6.2459    1.0000 </r>
       <r>    7.5628    1.0000 </r>
       <r>    9.5420    0.0000 </r>
       <r>   10.8429    0.0000 </r>
       <r>   11.7627    0.0000 </r>
       <r>   11.8256    0.0000 </r>
       <r>   12.8113    0.0000 </r>
       <r>   13.0771    0.0000 </r>
      </set>
      <set comment="kpoint 79">
       <r>   -1.1268    1.0000 </r>
       <r>    1.2832    1.0000 </r>
       <r>    2.7281    1.0000 </r>
       <r>    5.0493    1.0000 </r>
       <r>    5.4966    1.0000 </r>
       <r>    7.7723    1.0000 </r>
       <r>   10.0706    0.0000 </r>
       <r>   10.6342    0.0000 </r>
       <r>   12.0649    0.0000 </r>
       <r>   12.3032    0.0000 </r>
       <r>   12.7548    0.0000 </r>
       <r>   12.9240    0.0000 </r>
      </set>
      <set comment="kpoint 80">
       <r>   -0.5865    1.0000 </r>
       <r>    1.6550    1.0000 </r>
       <r>    1.8133    1.0000 </r>
       <r>    4.0133    1.0000 </r>
       <r>    5.8198    1.0000 </r>
       <r>    8.1141   -0.0172 </r>
       <r>    9.5854    0.0000 </r>
       <r>   10.7415    0.0000 </r>
       <r>   11.1897    0.0000 </r>
       <r>   11.8672    0.0000 </r>
       <r>   12.9925    0.0000 </r>
       <r>   13.4237    0.0000 </r>
      </set>
      <set comment="kpoint 81">
[...]
       <r>    1.1922    1.0000 </r>
       <r>    1.1922    1.0000 </r>
       <r>    1.3468    1.0000 </r>
       <r>    3.1270    1.0000 </r>
       <r>    6.6626    1.0000 </r>
       <r>    6.6626    1.0000 </r>
       <r>    6.8696    1.0000 </r>
       <r>    8.5984   -0.0000 </r>
       <r>   12.9411    0.0000 </r>
       <r>   12.9411    0.0000 </r>
       <r>   13.1789    0.0000 </r>
       <r>   14.8043    0.0000 </r>
      </set>
      <set comment="kpoint 210">
       <r>    0.4687    1.0000 </r>
       <r>    1.8949    1.0000 </r>
       <r>    2.2340    1.0000 </r>
       <r>    2.2340    1.0000 </r>
       <r>    5.9641    1.0000 </r>
       <r>    7.3426    1.0000 </r>
       <r>    7.7252    1.0000 </r>
       <r>    7.7252    1.0000 </r>
       <r>   12.2711    0.0000 </r>
       <r>   13.5989    0.0000 </r>
       <r>   13.9897    0.0000 </r>
       <r>   13.9897    0.0000 </r>
      </set>
      <set comment="kpoint 211">
       <r>    1.5540    1.0000 </r>
       <r>    1.5540    1.0000 </r>
       <r>    1.7067    1.0000 </r>
       <r>    3.4669    1.0000 </r>
       <r>    5.4836    1.0000 </r>
       <r>    5.4836    1.0000 </r>
       <r>    5.7111    1.0000 </r>
       <r>    7.4339    1.0000 </r>
       <r>   14.7229    0.0000 </r>
       <r>   14.7229    0.0000 </r>
       <r>   14.9472    0.0000 </r>
       <r>   15.9664    0.0000 </r>
      </set>
      <set comment="kpoint 212">
       <r>    0.8325    1.0000 </r>
       <r>    2.2543    1.0000 </r>
       <r>    2.5884    1.0000 </r>
       <r>    2.5884    1.0000 </r>
       <r>    4.7803    1.0000 </r>
       <r>    6.1682    1.0000 </r>
       <r>    6.5591    1.0000 </r>
       <r>    6.5591    1.0000 </r>
       <r>   14.0726    0.0000 </r>
       <r>   15.3680    0.0000 </r>
       <r>   15.7027    0.0000 </r>
       <r>   15.7027    0.0000 </r>
      </set>
      <set comment="kpoint 213">
       <r>    2.0584    1.0000 </r>
       <r>    2.0584    1.0000 </r>
       <r>    2.2070    1.0000 </r>
       <r>    3.8684    1.0000 </r>
       <r>    4.4275    1.0000 </r>
       <r>    4.4275    1.0000 </r>
       <r>    4.7532    1.0000 </r>
       <r>    6.3918    1.0000 </r>
       <r>   16.4233    0.0000 </r>
       <r>   16.5822    0.0000 </r>
       <r>   16.5822    0.0000 </r>
       <r>   16.7593    0.0000 </r>
      </set>
      <set comment="kpoint 214">
       <r>    1.3401    1.0000 </r>
       <r>    2.7523    1.0000 </r>
       <r>    3.0757    1.0000 </r>
       <r>    3.0757    1.0000 </r>
       <r>    3.7238    1.0000 </r>
       <r>    5.1155    1.0000 </r>
       <r>    5.5229    1.0000 </r>
       <r>    5.5229    1.0000 </r>
       <r>   15.9750    0.0000 </r>
       <r>   16.5688    0.0000 </r>
       <r>   16.5688    0.0000 </r>
       <r>   17.2109    0.0000 </r>
      </set>
      <set comment="kpoint 215">
       <r>    2.6986    1.0000 </r>
       <r>    2.6986    1.0000 </r>
       <r>    2.8410    1.0000 </r>
       <r>    3.5100    1.0000 </r>
       <r>    3.5100    1.0000 </r>
       <r>    3.5719    1.0000 </r>
       <r>    4.7661    1.0000 </r>
       <r>    5.4893    1.0000 </r>
       <r>   17.0108    0.0000 </r>
       <r>   17.7253    0.0000 </r>
       <r>   18.2834    0.0000 </r>
       <r>   18.3668    0.0000 </r>
      </set>
      <set comment="kpoint 216">
       <r>    1.9894    1.0000 </r>
       <r>    2.7709    1.0000 </r>
       <r>    3.4210    1.0000 </r>
       <r>    3.6469    1.0000 </r>
       <r>    3.6469    1.0000 </r>
       <r>    4.1957    1.0000 </r>
       <r>    4.6755    1.0000 </r>
       <r>    4.6755    1.0000 </r>
       <r>   17.0820    0.0000 </r>
       <r>   17.0820    0.0000 </r>
       <r>   17.8631    0.0000 </r>
       <r>   17.9065    0.0000 </r>
      </set>
     </set>
    </set>
   </array>
  </eigenvalues>
  <separator name="orbital magnetization" >
   <v name="MAGDIPOLOUT">      0.00000000      0.00000000      0.00000000</v>
  </separator>
  <dos>
   <i name="efermi">      8.02753834 </i>
   <total>
    <array>
     <dimension dim="1">gridpoints</dimension>
     <dimension dim="2">spin</dimension>
     <field>energy</field>
     <field>total</field>
     <field>integrated</field>
     <set>
      <set comment="spin 1">
       <r>    -4.1970     0.0000     0.0000 </r>
       <r>    -4.1182     0.0000     0.0000 </r>
       <r>    -4.0394     0.0000     0.0000 </r>
       <r>    -3.9606     0.0000     0.0000 </r>
       <r>    -3.8818     0.0000     0.0000 </r>
       <r>    -3.8031     0.0000     0.0000 </r>
       <r>    -3.7243     0.0000     0.0000 </r>
       <r>    -3.6455     0.0000     0.0000 </r>
       <r>    -3.5667    -0.0000    -0.0000 </r>
       <r>    -3.4879    -0.0000    -0.0000 </r>
       <r>    -3.4091    -0.0000    -0.0000 </r>
       <r>    -3.3303    -0.0000    -0.0000 </r>
       <r>    -3.2515    -0.0000    -0.0000 </r>
       <r>    -3.1727    -0.0006    -0.0000 </r>
       <r>    -3.0939     0.0155     0.0012 </r>
       <r>    -3.0151     0.1134     0.0101 </r>
       <r>    -2.9363     0.2308     0.0283 </r>
       <r>    -2.8575     0.1455     0.0398 </r>
       <r>    -2.7787     0.1757     0.0536 </r>
       <r>    -2.6999     0.4953     0.0926 </r>
       <r>    -2.6211     0.3253     0.1183 </r>
       <r>    -2.5423     0.1129     0.1272 </r>
       <r>    -2.4636     0.3466     0.1545 </r>
       <r>    -2.3848     0.4705     0.1915 </r>
       <r>    -2.3060     0.5839     0.2376 </r>
       <r>    -2.2272     0.3275     0.2634 </r>
       <r>    -2.1484     0.4098     0.2956 </r>
       <r>    -2.0696     0.5202     0.3366 </r>
       <r>    -1.9908     0.3419     0.3636 </r>
       <r>    -1.9120     0.4941     0.4025 </r>
       <r>    -1.8332     0.4935     0.4414 </r>
       <r>    -1.7544     0.6781     0.4948 </r>
       <r>    -1.6756     0.5570     0.5387 </r>
       <r>    -1.5968     0.8233     0.6036 </r>
       <r>    -1.5180     0.4223     0.6369 </r>
       <r>    -1.4392     0.4927     0.6757 </r>
       <r>    -1.3604     0.4942     0.7146 </r>
       <r>    -1.2816     0.2388     0.7334 </r>
       <r>    -1.2028     0.9721     0.8100 </r>
       <r>    -1.1240     0.8908     0.8802 </r>
       <r>    -1.0453     0.7679     0.9407 </r>
       <r>    -0.9665     0.5620     0.9850 </r>
       <r>    -0.8877     0.7325     1.0427 </r>
       <r>    -0.8089     0.5646     1.0872 </r>
       <r>    -0.7301     0.9890     1.1651 </r>
       <r>    -0.6513     0.4682     1.2020 </r>
       <r>    -0.5725     0.7038     1.2575 </r>
       <r>    -0.4937     0.5011     1.2970 </r>
       <r>    -0.4149     0.7866     1.3590 </r>
       <r>    -0.3361     1.0877     1.4447 </r>
       <r>    -0.2573     0.8288     1.5100 </r>
       <r>    -0.1785     0.5599     1.5541 </r>
       <r>    -0.0997     1.1197     1.6423 </r>
       <r>    -0.0209     1.1783     1.7352 </r>
       <r>     0.0579     0.5405     1.7777 </r>
       <r>     0.1367     0.7068     1.8334 </r>
       <r>     0.2155     0.7491     1.8925 </r>
       <r>     0.2942     0.8687     1.9609 </r>
       <r>     0.3730     0.9499     2.0358 </r>
       <r>     0.4518     1.0195     2.1161 </r>
       <r>     0.5306     0.1690     2.1294 </r>
       <r>     0.6094     1.1687     2.2215 </r>
       <r>     0.6882     0.8989     2.2923 </r>
       <r>     0.7670     1.2713     2.3925 </r>
       <r>     0.8458     1.3644     2.5000 </r>
       <r>     0.9246     1.2483     2.5984 </r>
       <r>     1.0034     0.6804     2.6520 </r>
       <r>     1.0822     0.6009     2.6993 </r>
       <r>     1.1610     0.8966     2.7700 </r>
       <r>     1.2398     1.2331     2.8671 </r>
       <r>     1.3186     0.6459     2.9180 </r>
       <r>     1.3974     1.0306     2.9992 </r>
       <r>     1.4762     0.7362     3.0572 </r>
       <r>     1.5550     1.2106     3.1526 </r>
       <r>     1.6338     0.9403     3.2267 </r>
       <r>     1.7125     1.4512     3.3411 </r>
       <r>     1.7913     1.0855     3.4266 </r>
       <r>     1.8701     1.1543     3.5175 </r>
       <r>     1.9489     1.4147     3.6290 </r>
       <r>     2.0277     0.7982     3.6919 </r>
       <r>     2.1065     0.5867     3.7381 </r>
       <r>     2.1853     0.9661     3.8143 </r>
       <r>     2.2641     1.6588     3.9450 </r>
       <r>     2.3429     1.6811     4.0774 </r>
       <r>     2.4217     1.1017     4.1642 </r>
       <r>     2.5005     0.8088     4.2280 </r>
       <r>     2.5793     1.2052     4.3229 </r>
       <r>     2.6581     0.3563     4.3510 </r>
       <r>     2.7369     0.9863     4.4287 </r>
       <r>     2.8157     1.3266     4.5332 </r>
       <r>     2.8945     1.5564     4.6559 </r>
       <r>     2.9733     1.3106     4.7592 </r>
       <r>     3.0520     0.9027     4.8303 </r>
       <r>     3.1308     1.8590     4.9768 </r>
       <r>     3.2096     1.5679     5.1003 </r>
       <r>     3.2884     0.4769     5.1379 </r>
       <r>     3.3672     1.2493     5.2363 </r>
       <r>     3.4460     1.8915     5.3854 </r>
       <r>     3.5248     1.5302     5.5059 </r>
       <r>     3.6036     1.2311     5.6029 </r>
       <r>     3.6824     1.2809     5.7039 </r>
       <r>     3.7612     0.9873     5.7817 </r>
       <r>     3.8400     0.6400     5.8321 </r>
       <r>     3.9188     0.8462     5.8988 </r>
       <r>     3.9976     1.5981     6.0247 </r>
       <r>     4.0764     1.3341     6.1298 </r>
       <r>     4.1552     1.3892     6.2393 </r>
       <r>     4.2340     2.1553     6.4091 </r>
       <r>     4.3128     1.1266     6.4979 </r>
       <r>     4.3916     1.6290     6.6262 </r>
       <r>     4.4703     1.3473     6.7324 </r>
       <r>     4.5491     0.9163     6.8046 </r>
       <r>     4.6279     2.0367     6.9650 </r>
       <r>     4.7067     1.1590     7.0564 </r>
       <r>     4.7855     1.4714     7.1723 </r>
       <r>     4.8643     1.2687     7.2723 </r>
       <r>     4.9431     1.1403     7.3621 </r>
       <r>     5.0219     1.1554     7.4532 </r>
       <r>     5.1007     1.5438     7.5748 </r>
       <r>     5.1795     1.2477     7.6731 </r>
       <r>     5.2583     1.8346     7.8177 </r>
       <r>     5.3371     1.6481     7.9475 </r>
       <r>     5.4159     2.2928     8.1282 </r>
       <r>     5.4947     1.8756     8.2760 </r>
       <r>     5.5735     0.8839     8.3456 </r>
       <r>     5.6523     0.8731     8.4144 </r>
       <r>     5.7311     1.1909     8.5082 </r>
       <r>     5.8098     1.6069     8.6349 </r>
       <r>     5.8886     1.7716     8.7744 </r>
       <r>     5.9674     1.6333     8.9031 </r>
       <r>     6.0462     1.6760     9.0352 </r>
       <r>     6.1250     0.8646     9.1033 </r>
       <r>     6.2038     1.2868     9.2047 </r>
       <r>     6.2826     1.4749     9.3209 </r>
       <r>     6.3614     1.2153     9.4167 </r>
       <r>     6.4402     1.1218     9.5051 </r>
       <r>     6.5190     1.7199     9.6406 </r>
       <r>     6.5978     1.3010     9.7431 </r>
       <r>     6.6766     1.8214     9.8866 </r>
       <r>     6.7554     1.8372    10.0314 </r>
       <r>     6.8342     1.2143    10.1271 </r>
       <r>     6.9130     1.5392    10.2483 </r>
       <r>     6.9918     1.4024    10.3588 </r>
       <r>     7.0706     1.5418    10.4803 </r>
       <r>     7.1494     1.3074    10.5833 </r>
       <r>     7.2281     1.3469    10.6895 </r>
       <r>     7.3069     1.3193    10.7934 </r>
       <r>     7.3857     1.6881    10.9264 </r>
       <r>     7.4645     1.3429    11.0322 </r>
       <r>     7.5433     1.5344    11.1532 </r>
       <r>     7.6221     1.8375    11.2979 </r>
       <r>     7.7009     2.2679    11.4766 </r>
       <r>     7.7797     1.4018    11.5871 </r>
       <r>     7.8585     1.6565    11.7176 </r>
       <r>     7.9373     1.7320    11.8541 </r>
       <r>     8.0161     1.6875    11.9871 </r>
       <r>     8.0949     1.3662    12.0947 </r>
       <r>     8.1737     2.3207    12.2776 </r>
       <r>     8.2525     1.6899    12.4107 </r>
       <r>     8.3313     1.1173    12.4988 </r>
       <r>     8.4101     0.8476    12.5655 </r>
       <r>     8.4889     2.0111    12.7240 </r>
       <r>     8.5676     1.2561    12.8230 </r>
       <r>     8.6464     1.7391    12.9600 </r>
       <r>     8.7252     1.7530    13.0981 </r>
       <r>     8.8040     2.5446    13.2986 </r>
       <r>     8.8828     0.8883    13.3686 </r>
       <r>     8.9616     1.5754    13.4928 </r>
       <r>     9.0404     1.2320    13.5898 </r>
       <r>     9.1192     1.7350    13.7266 </r>
       <r>     9.1980     2.2456    13.9035 </r>
       <r>     9.2768     2.0846    14.0677 </r>
       <r>     9.3556     1.5142    14.1871 </r>
       <r>     9.4344     0.6282    14.2365 </r>
       <r>     9.5132     1.6882    14.3696 </r>
       <r>     9.5920     2.5320    14.5691 </r>
       <r>     9.6708     1.9839    14.7254 </r>
       <r>     9.7496     1.7607    14.8641 </r>
       <r>     9.8284     1.9935    15.0212 </r>
       <r>     9.9072     2.3565    15.2069 </r>
       <r>     9.9859     1.8339    15.3514 </r>
       <r>    10.0647     1.2604    15.4507 </r>
       <r>    10.1435     1.5723    15.5746 </r>
       <r>    10.2223     1.4599    15.6896 </r>
       <r>    10.3011     2.1734    15.8609 </r>
       <r>    10.3799     2.8033    16.0817 </r>
       <r>    10.4587     1.6350    16.2106 </r>
       <r>    10.5375     0.4816    16.2485 </r>
       <r>    10.6163     0.7924    16.3110 </r>
       <r>    10.6951     1.8181    16.4542 </r>
       <r>    10.7739     1.9347    16.6067 </r>
       <r>    10.8527     2.2176    16.7814 </r>
       <r>    10.9315     2.0562    16.9434 </r>
       <r>    11.0103     1.5686    17.0670 </r>
       <r>    11.0891     2.1207    17.2341 </r>
       <r>    11.1679     2.6422    17.4423 </r>
       <r>    11.2467     2.0967    17.6075 </r>
       <r>    11.3254     2.4753    17.8026 </r>
       <r>    11.4042     1.4180    17.9143 </r>
       <r>    11.4830     1.8515    18.0602 </r>
       <r>    11.5618     2.4276    18.2514 </r>
       <r>    11.6406     1.1619    18.3430 </r>
       <r>    11.7194     1.2564    18.4420 </r>
       <r>    11.7982     1.7159    18.5772 </r>
       <r>    11.8770     2.3204    18.7600 </r>
       <r>    11.9558     2.0146    18.9188 </r>
       <r>    12.0346     2.9857    19.1540 </r>
       <r>    12.1134     2.1594    19.3242 </r>
       <r>    12.1922     1.8923    19.4733 </r>
       <r>    12.2710     2.1680    19.6441 </r>
       <r>    12.3498     1.9451    19.7974 </r>
       <r>    12.4286     1.6440    19.9269 </r>
       <r>    12.5074     2.0173    20.0859 </r>
       <r>    12.5862     1.5916    20.2113 </r>
       <r>    12.6650     2.0086    20.3695 </r>
       <r>    12.7437     2.2061    20.5434 </r>
       <r>    12.8225     0.9186    20.6157 </r>
       <r>    12.9013     1.5578    20.7385 </r>
       <r>    12.9801     2.1423    20.9073 </r>
       <r>    13.0589     2.4072    21.0969 </r>
       <r>    13.1377     2.7020    21.3099 </r>
       <r>    13.2165     2.2390    21.4863 </r>
       <r>    13.2953     1.6184    21.6138 </r>
       <r>    13.3741     2.1862    21.7860 </r>
       <r>    13.4529     1.5016    21.9044 </r>
       <r>    13.5317     0.9737    21.9811 </r>
       <r>    13.6105     1.0378    22.0629 </r>
       <r>    13.6893     1.8135    22.2058 </r>
       <r>    13.7681     1.5927    22.3313 </r>
       <r>    13.8469     0.9201    22.4037 </r>
       <r>    13.9257     1.4180    22.5155 </r>
       <r>    14.0045     1.4037    22.6261 </r>
       <r>    14.0832     0.9626    22.7019 </r>
       <r>    14.1620     0.9617    22.7777 </r>
       <r>    14.2408     0.5070    22.8177 </r>
       <r>    14.3196     1.0043    22.8968 </r>
       <r>    14.3984     0.8096    22.9606 </r>
       <r>    14.4772     0.2491    22.9802 </r>
       <r>    14.5560     0.7536    23.0396 </r>
       <r>    14.6348     0.5923    23.0863 </r>
       <r>    14.7136     0.7738    23.1472 </r>
       <r>    14.7924     0.4310    23.1812 </r>
       <r>    14.8712     0.6655    23.2336 </r>
       <r>    14.9500     0.4424    23.2685 </r>
       <r>    15.0288     1.0360    23.3501 </r>
       <r>    15.1076     0.5514    23.3936 </r>
       <r>    15.1864     0.1987    23.4092 </r>
       <r>    15.2652     0.5519    23.4527 </r>
       <r>    15.3440     0.3238    23.4782 </r>
       <r>    15.4228     0.1028    23.4863 </r>
       <r>    15.5015     0.5173    23.5271 </r>
       <r>    15.5803     0.4101    23.5594 </r>
       <r>    15.6591     0.4380    23.5939 </r>
       <r>    15.7379     0.5823    23.6398 </r>
       <r>    15.8167     0.1850    23.6544 </r>
       <r>    15.8955     0.2167    23.6715 </r>
       <r>    15.9743     0.3833    23.7017 </r>
       <r>    16.0531     0.2072    23.7180 </r>
       <r>    16.1319     0.0173    23.7194 </r>
       <r>    16.2107     0.3383    23.7460 </r>
       <r>    16.2895     0.2334    23.7644 </r>
       <r>    16.3683     0.0605    23.7692 </r>
       <r>    16.4471     0.3310    23.7953 </r>
       <r>    16.5259     0.2165    23.8123 </r>
       <r>    16.6047     0.3738    23.8418 </r>
       <r>    16.6835     0.0217    23.8435 </r>
       <r>    16.7623     0.0999    23.8513 </r>
       <r>    16.8410     0.2229    23.8689 </r>
       <r>    16.9198     0.2186    23.8861 </r>
       <r>    16.9986     0.0115    23.8870 </r>
       <r>    17.0774     0.2114    23.9037 </r>
       <r>    17.1562     0.2791    23.9257 </r>
       <r>    17.2350     0.0949    23.9332 </r>
       <r>    17.3138     0.0097    23.9339 </r>
       <r>    17.3926    -0.0062    23.9334 </r>
       <r>    17.4714     0.1220    23.9430 </r>
       <r>    17.5502     0.1947    23.9584 </r>
       <r>    17.6290    -0.0065    23.9579 </r>
       <r>    17.7078     0.0176    23.9593 </r>
       <r>    17.7866     0.0598    23.9640 </r>
       <r>    17.8654     0.0355    23.9668 </r>
       <r>    17.9442     0.2403    23.9857 </r>
       <r>    18.0230     0.0302    23.9881 </r>
       <r>    18.1018    -0.0015    23.9880 </r>
       <r>    18.1806    -0.0005    23.9879 </r>
       <r>    18.2593     0.0108    23.9888 </r>
       <r>    18.3381     0.0755    23.9947 </r>
       <r>    18.4169     0.0687    24.0002 </r>
       <r>    18.4957    -0.0019    24.0000 </r>
       <r>    18.5745    -0.0001    24.0000 </r>
       <r>    18.6533    -0.0000    24.0000 </r>
       <r>    18.7321    -0.0000    24.0000 </r>
       <r>    18.8109     0.0000    24.0000 </r>
       <r>    18.8897     0.0000    24.0000 </r>
       <r>    18.9685     0.0000    24.0000 </r>
       <r>    19.0473     0.0000    24.0000 </r>
       <r>    19.1261     0.0000    24.0000 </r>
       <r>    19.2049     0.0000    24.0000 </r>
       <r>    19.2837     0.0000    24.0000 </r>
       <r>    19.3625     0.0000    24.0000 </r>
       <r>    19.4413     0.0000    24.0000 </r>
      </set>
     </set>
    </array>
   </total>
  </dos>
 </calculation>
 <structure name="finalpos" >
  <crystal>
   <varray name="basis" >
    <v>       4.04336400       0.00000000       0.00000000 </v>
    <v>       0.00000000       4.04336400       0.00000000 </v>
    <v>      -0.48520400       0.00000000       4.01414600 </v>
   </varray>
   <i name="volume">     65.62643976 </i>
   <varray name="rec_basis" >
    <v>       0.24731882       0.00000000       0.02989430 </v>
    <v>       0.00000000       0.24731882       0.00000000 </v>
    <v>       0.00000000       0.00000000       0.24911899 </v>
   </varray>
  </crystal>
  <varray name="positions" >
   <v>       0.00000000       0.00000000       0.00000000 </v>
   <v>       0.00000000       0.50000000       0.50000000 </v>
   <v>       0.50000000       0.00000000       0.50000000 </v>
   <v>       0.50000000       0.50000000       0.00000000 </v>
  </varray>
 </structure>
</modeling>
