<?xml version="1.0" encoding="ISO-8859-1"?>
<modeling>
 <generator>
  <i name="program" type="string">vasp </i>
  <i name="version" type="string">5.4.4.18Apr17-6-g9f103f2a35  </i>
  <i name="subversion" type="string">(build Jun 11 2017 21:30:58) complex            parallel </i>
  <i name="platform" type="string">LinuxIFC </i>
  <i name="date" type="string">2022 07 07 </i>
  <i name="time" type="string">18:39:29 </i>
 </generator>
 <incar>
  <i type="string" name="PREC">accurate</i>
  <i type="string" name="ALGO"> Normal</i>
  <i type="logical" name="ADDGRID"> T  </i>
  <i type="int" name="NELM">   100</i>
  <i type="int" name="NELMIN">     4</i>
  <i type="int" name="IBRION">    -1</i>
  <i name="EDIFF">      0.00005000</i>
  <i name="ENCUT">    520.00000000</i>
  <i type="logical" name="LREAL"> F  </i>
  <i type="int" name="ISMEAR">     1</i>
  <i name="SIGMA">      0.05000000</i>
  <i type="logical" name="LWAVE"> F  </i>
  <i type="logical" name="LCHARG"> F  </i>
  <i type="logical" name="LASPH"> T  </i>
  <v type="int" name="KPOINT_BSE">    -1     0     0     0</v>
  <i type="int" name="NELM">   100</i>
  <i type="logical" name="LASPH"> T  </i>
 </incar>
 <structure name="primitive_cell" >
  <crystal>
   <varray name="basis" >
    <v>      -0.12130100      -2.01804000       2.02168200 </v>
    <v>       0.12130100       2.01804000       2.02168200 </v>
    <v>      -2.02168200       0.00000000      -2.02168200 </v>
   </varray>
   <i name="volume">     16.49625854 </i>
   <varray name="rec_basis" >
    <v>      -0.24731882      -0.23289924       0.24731882 </v>
    <v>      -0.24731882       0.26263108       0.24731882 </v>
    <v>      -0.49463763       0.02973184       0.00000000 </v>
   </varray>
  </crystal>
  <varray name="positions" >
   <v>       0.00000000       0.00000000       0.00000000 </v>
  </varray>
 </structure>
 <varray name="primitive_index" >
  <v type="int" >        1 </v>
 </varray>
 <kpoints>
  <generation param="Gamma">
   <v type="int" name="divisions">      11       11       11 </v>
   <v name="usershift">      0.00000000       0.00000000       0.00000000 </v>
   <v name="genvec1">      0.09090909      -0.00000000       0.00000000 </v>
   <v name="genvec2">      0.00000000       0.09090909       0.00000000 </v>
   <v name="genvec3">      0.00000000       0.00000000       0.09090909 </v>
   <v name="shift">      0.00000000       0.00000000       0.00000000 </v>
  </generation>
  <varray name="kpointlist" >
   <v>       0.00000000       0.00000000       0.00000000 </v>
   <v>       0.09090909       0.00000000       0.00000000 </v>
   <v>       0.18181818       0.00000000       0.00000000 </v>
   <v>       0.27272727       0.00000000       0.00000000 </v>
   <v>       0.36363636       0.00000000       0.00000000 </v>
   <v>       0.45454545       0.00000000       0.00000000 </v>
   <v>       0.09090909       0.09090909       0.00000000 </v>
   <v>       0.18181818       0.09090909       0.00000000 </v>
   <v>       0.27272727       0.09090909       0.00000000 </v>
   <v>       0.36363636       0.09090909       0.00000000 </v>
   <v>       0.45454545       0.09090909       0.00000000 </v>
   <v>      -0.45454545       0.09090909       0.00000000 </v>
   <v>      -0.36363636       0.09090909       0.00000000 </v>
   <v>      -0.27272727       0.09090909       0.00000000 </v>
   <v>      -0.18181818       0.09090909       0.00000000 </v>
   <v>      -0.09090909       0.09090909       0.00000000 </v>
   <v>       0.18181818       0.18181818       0.00000000 </v>
   <v>       0.27272727       0.18181818       0.00000000 </v>
   <v>       0.36363636       0.18181818       0.00000000 </v>
   <v>       0.45454545       0.18181818       0.00000000 </v>
   <v>      -0.45454545       0.18181818       0.00000000 </v>
   <v>      -0.36363636       0.18181818       0.00000000 </v>
   <v>      -0.27272727       0.18181818       0.00000000 </v>
   <v>      -0.18181818       0.18181818       0.00000000 </v>
   <v>       0.27272727       0.27272727       0.00000000 </v>
   <v>       0.36363636       0.27272727       0.00000000 </v>
   <v>       0.45454545       0.27272727       0.00000000 </v>
   <v>      -0.45454545       0.27272727       0.00000000 </v>
   <v>      -0.36363636       0.27272727       0.00000000 </v>
   <v>      -0.27272727       0.27272727       0.00000000 </v>
   <v>       0.36363636       0.36363636       0.00000000 </v>
   <v>       0.45454545       0.36363636       0.00000000 </v>
   <v>      -0.45454545       0.36363636       0.00000000 </v>
   <v>      -0.36363636       0.36363636       0.00000000 </v>
   <v>       0.45454545       0.45454545       0.00000000 </v>
   <v>      -0.45454545       0.45454545       0.00000000 </v>
   <v>       0.00000000       0.00000000       0.09090909 </v>
   <v>       0.09090909       0.00000000       0.09090909 </v>
   <v>       0.18181818       0.00000000       0.09090909 </v>
   <v>       0.27272727       0.00000000       0.09090909 </v>
   <v>       0.36363636       0.00000000       0.09090909 </v>
   <v>       0.45454545       0.00000000       0.09090909 </v>
   <v>       0.09090909       0.09090909       0.09090909 </v>
   <v>       0.18181818       0.09090909       0.09090909 </v>
   <v>       0.27272727       0.09090909       0.09090909 </v>
   <v>       0.36363636       0.09090909       0.09090909 </v>
   <v>       0.45454545       0.09090909       0.09090909 </v>
   <v>      -0.45454545       0.09090909       0.09090909 </v>
   <v>      -0.36363636       0.09090909       0.09090909 </v>
   <v>      -0.27272727       0.09090909       0.09090909 </v>
   <v>      -0.18181818       0.09090909       0.09090909 </v>
   <v>      -0.09090909       0.09090909       0.09090909 </v>
   <v>       0.18181818       0.18181818       0.09090909 </v>
   <v>       0.27272727       0.18181818       0.09090909 </v>
   <v>       0.36363636       0.18181818       0.09090909 </v>
   <v>       0.45454545       0.18181818       0.09090909 </v>
   <v>      -0.45454545       0.18181818       0.09090909 </v>
   <v>      -0.36363636       0.18181818       0.09090909 </v>
   <v>      -0.27272727       0.18181818       0.09090909 </v>
   <v>      -0.18181818       0.18181818       0.09090909 </v>
   <v>       0.27272727       0.27272727       0.09090909 </v>
   <v>       0.36363636       0.27272727       0.09090909 </v>
   <v>       0.45454545       0.27272727       0.09090909 </v>
   <v>      -0.45454545       0.27272727       0.09090909 </v>
   <v>      -0.36363636       0.27272727       0.09090909 </v>
   <v>      -0.27272727       0.27272727       0.09090909 </v>
   <v>       0.36363636       0.36363636       0.09090909 </v>
   <v>       0.45454545       0.36363636       0.09090909 </v>
   <v>      -0.45454545       0.36363636       0.09090909 </v>
   <v>      -0.36363636       0.36363636       0.09090909 </v>
   <v>       0.45454545       0.45454545       0.09090909 </v>
   <v>      -0.45454545       0.45454545       0.09090909 </v>
   <v>       0.00000000       0.00000000       0.18181818 </v>
   <v>       0.09090909       0.00000000       0.18181818 </v>
   <v>       0.18181818       0.00000000       0.18181818 </v>
   <v>       0.27272727       0.00000000       0.18181818 </v>
   <v>       0.36363636       0.00000000       0.18181818 </v>
   <v>       0.45454545       0.00000000       0.18181818 </v>
   <v>       0.09090909       0.09090909       0.18181818 </v>
   <v>       0.18181818       0.09090909       0.18181818 </v>
   <v>       0.27272727       0.09090909       0.18181818 </v>
   <v>       0.36363636       0.09090909       0.18181818 </v>
   <v>       0.45454545       0.09090909       0.18181818 </v>
   <v>      -0.45454545       0.09090909       0.18181818 </v>
   <v>      -0.36363636       0.09090909       0.18181818 </v>
   <v>      -0.27272727       0.09090909       0.18181818 </v>
   <v>      -0.18181818       0.09090909       0.18181818 </v>
   <v>      -0.09090909       0.09090909       0.18181818 </v>
   <v>       0.18181818       0.18181818       0.18181818 </v>
   <v>       0.27272727       0.18181818       0.18181818 </v>
   <v>       0.36363636       0.18181818       0.18181818 </v>
   <v>       0.45454545       0.18181818       0.18181818 </v>
   <v>      -0.45454545       0.18181818       0.18181818 </v>
   <v>      -0.36363636       0.18181818       0.18181818 </v>
   <v>      -0.27272727       0.18181818       0.18181818 </v>
   <v>      -0.18181818       0.18181818       0.18181818 </v>
   <v>       0.27272727       0.27272727       0.18181818 </v>
   <v>       0.36363636       0.27272727       0.18181818 </v>
   <v>       0.45454545       0.27272727       0.18181818 </v>
   <v>      -0.45454545       0.27272727       0.18181818 </v>
   <v>      -0.36363636       0.27272727       0.18181818 </v>
   <v>      -0.27272727       0.27272727       0.18181818 </v>
   <v>       0.36363636       0.36363636       0.18181818 </v>
   <v>       0.45454545       0.36363636       0.18181818 </v>
   <v>      -0.45454545       0.36363636       0.18181818 </v>
   <v>      -0.36363636       0.36363636       0.18181818 </v>
   <v>       0.45454545       0.45454545       0.18181818 </v>
   <v>      -0.45454545       0.45454545       0.18181818 </v>
   <v>       0.00000000       0.00000000       0.27272727 </v>
   <v>       0.09090909       0.00000000       0.27272727 </v>
   <v>       0.18181818       0.00000000       0.27272727 </v>
   <v>       0.27272727       0.00000000       0.27272727 </v>
   <v>       0.36363636       0.00000000       0.27272727 </v>
   <v>       0.45454545       0.00000000       0.27272727 </v>
   <v>       0.09090909       0.09090909       0.27272727 </v>
   <v>       0.18181818       0.09090909       0.27272727 </v>
   <v>       0.27272727       0.09090909       0.27272727 </v>
   <v>       0.36363636       0.09090909       0.27272727 </v>
   <v>       0.45454545       0.09090909       0.27272727 </v>
   <v>      -0.45454545       0.09090909       0.27272727 </v>
   <v>      -0.36363636       0.09090909       0.27272727 </v>
   <v>      -0.27272727       0.09090909       0.27272727 </v>
   <v>      -0.18181818       0.09090909       0.27272727 </v>
   <v>      -0.09090909       0.09090909       0.27272727 </v>
   <v>       0.18181818       0.18181818       0.27272727 </v>
   <v>       0.27272727       0.18181818       0.27272727 </v>
   <v>       0.36363636       0.18181818       0.27272727 </v>
   <v>       0.45454545       0.18181818       0.27272727 </v>
   <v>      -0.45454545       0.18181818       0.27272727 </v>
   <v>      -0.36363636       0.18181818       0.27272727 </v>
   <v>      -0.27272727       0.18181818       0.27272727 </v>
   <v>      -0.18181818       0.18181818       0.27272727 </v>
   <v>       0.27272727       0.27272727       0.27272727 </v>
   <v>       0.36363636       0.27272727       0.27272727 </v>
   <v>       0.45454545       0.27272727       0.27272727 </v>
   <v>      -0.45454545       0.27272727       0.27272727 </v>
   <v>      -0.36363636       0.27272727       0.27272727 </v>
   <v>      -0.27272727       0.27272727       0.27272727 </v>
   <v>       0.36363636       0.36363636       0.27272727 </v>
   <v>       0.45454545       0.36363636       0.27272727 </v>
   <v>      -0.45454545       0.36363636       0.27272727 </v>
   <v>      -0.36363636       0.36363636       0.27272727 </v>
   <v>       0.45454545       0.45454545       0.27272727 </v>
   <v>      -0.45454545       0.45454545       0.27272727 </v>
   <v>       0.00000000       0.00000000       0.36363636 </v>
   <v>       0.09090909       0.00000000       0.36363636 </v>
   <v>       0.18181818       0.00000000       0.36363636 </v>
   <v>       0.27272727       0.00000000       0.36363636 </v>
   <v>       0.36363636       0.00000000       0.36363636 </v>
   <v>       0.45454545       0.00000000       0.36363636 </v>
   <v>       0.09090909       0.09090909       0.36363636 </v>
   <v>       0.18181818       0.09090909       0.36363636 </v>
   <v>       0.27272727       0.09090909       0.36363636 </v>
   <v>       0.36363636       0.09090909       0.36363636 </v>
   <v>       0.45454545       0.09090909       0.36363636 </v>
   <v>      -0.45454545       0.09090909       0.36363636 </v>
   <v>      -0.36363636       0.09090909       0.36363636 </v>
   <v>      -0.27272727       0.09090909       0.36363636 </v>
   <v>      -0.18181818       0.09090909       0.36363636 </v>
   <v>      -0.09090909       0.09090909       0.36363636 </v>
   <v>       0.18181818       0.18181818       0.36363636 </v>
   <v>       0.27272727       0.18181818       0.36363636 </v>
   <v>       0.36363636       0.18181818       0.36363636 </v>
   <v>       0.45454545       0.18181818       0.36363636 </v>
   <v>      -0.45454545       0.18181818       0.36363636 </v>
   <v>      -0.36363636       0.18181818       0.36363636 </v>
   <v>      -0.27272727       0.18181818       0.36363636 </v>
   <v>      -0.18181818       0.18181818       0.36363636 </v>
   <v>       0.27272727       0.27272727       0.36363636 </v>
   <v>       0.36363636       0.27272727       0.36363636 </v>
   <v>       0.45454545       0.27272727       0.36363636 </v>
   <v>      -0.45454545       0.27272727       0.36363636 </v>
   <v>      -0.36363636       0.27272727       0.36363636 </v>
   <v>      -0.27272727       0.27272727       0.36363636 </v>
   <v>       0.36363636       0.36363636       0.36363636 </v>
   <v>       0.45454545       0.36363636       0.36363636 </v>
   <v>      -0.45454545       0.36363636       0.36363636 </v>
   <v>      -0.36363636       0.36363636       0.36363636 </v>
   <v>       0.45454545       0.45454545       0.36363636 </v>
   <v>      -0.45454545       0.45454545       0.36363636 </v>
   <v>       0.00000000       0.00000000       0.45454545 </v>
   <v>       0.09090909       0.00000000       0.45454545 </v>
   <v>       0.18181818       0.00000000       0.45454545 </v>
   <v>       0.27272727       0.00000000       0.45454545 </v>
   <v>       0.36363636       0.00000000       0.45454545 </v>
   <v>       0.45454545       0.00000000       0.45454545 </v>
   <v>       0.09090909       0.09090909       0.45454545 </v>
   <v>       0.18181818       0.09090909       0.45454545 </v>
   <v>       0.27272727       0.09090909       0.45454545 </v>
   <v>       0.36363636       0.09090909       0.45454545 </v>
   <v>       0.45454545       0.09090909       0.45454545 </v>
   <v>      -0.45454545       0.09090909       0.45454545 </v>
   <v>      -0.36363636       0.09090909       0.45454545 </v>
   <v>      -0.27272727       0.09090909       0.45454545 </v>
   <v>      -0.18181818       0.09090909       0.45454545 </v>
   <v>      -0.09090909       0.09090909       0.45454545 </v>
   <v>       0.18181818       0.18181818       0.45454545 </v>
   <v>       0.27272727       0.18181818       0.45454545 </v>
   <v>       0.36363636       0.18181818       0.45454545 </v>
   <v>       0.45454545       0.18181818       0.45454545 </v>
   <v>      -0.45454545       0.18181818       0.45454545 </v>
   <v>      -0.36363636       0.18181818       0.45454545 </v>
   <v>      -0.27272727       0.18181818       0.45454545 </v>
   <v>      -0.18181818       0.18181818       0.45454545 </v>
   <v>       0.27272727       0.27272727       0.45454545 </v>
   <v>       0.36363636       0.27272727       0.45454545 </v>
   <v>       0.45454545       0.27272727       0.45454545 </v>
   <v>      -0.45454545       0.27272727       0.45454545 </v>
   <v>      -0.36363636       0.27272727       0.45454545 </v>
   <v>      -0.27272727       0.27272727       0.45454545 </v>
   <v>       0.36363636       0.36363636       0.45454545 </v>
   <v>       0.45454545       0.36363636       0.45454545 </v>
   <v>      -0.45454545       0.36363636       0.45454545 </v>
   <v>      -0.36363636       0.36363636       0.45454545 </v>
   <v>       0.45454545       0.45454545       0.45454545 </v>
   <v>      -0.45454545       0.45454545       0.45454545 </v>
  </varray>
  <varray name="weights" >
   <v>       0.00075131 </v>
   <v>       0.00300526 </v>
   <v>       0.00300526 </v>
   <v>       0.00300526 </v>
   <v>       0.00300526 </v>
   <v>       0.00300526 </v>
   <v>       0.00150263 </v>
   <v>       0.00300526 </v>
   <v>       0.00300526 </v>
   <v>       0.00300526 </v>
   <v>       0.00300526 </v>
   <v>       0.00300526 </v>
   <v>       0.00300526 </v>
   <v>       0.00300526 </v>
   <v>       0.00300526 </v>
   <v>       0.00150263 </v>
   <v>       0.00150263 </v>
   <v>       0.00300526 </v>
   <v>       0.00300526 </v>
   <v>       0.00300526 </v>
   <v>       0.00300526 </v>
   <v>       0.00300526 </v>
   <v>       0.00300526 </v>
   <v>       0.00150263 </v>
   <v>       0.00150263 </v>
   <v>       0.00300526 </v>
   <v>       0.00300526 </v>
   <v>       0.00300526 </v>
   <v>       0.00300526 </v>
   <v>       0.00150263 </v>
   <v>       0.00150263 </v>
   <v>       0.00300526 </v>
   <v>       0.00300526 </v>
   <v>       0.00150263 </v>
   <v>       0.00150263 </v>
   <v>       0.00150263 </v>
   <v>       0.00150263 </v>
   <v>       0.00601052 </v>
   <v>       0.00601052 </v>
   <v>       0.00601052 </v>
   <v>       0.00601052 </v>
   <v>       0.00601052 </v>
   <v>       0.00300526 </v>
   <v>       0.00601052 </v>
   <v>       0.00601052 </v>
   <v>       0.00601052 </v>
   <v>       0.00601052 </v>
   <v>       0.00601052 </v>
   <v>       0.00601052 </v>
   <v>       0.00601052 </v>
   <v>       0.00601052 </v>
   <v>       0.00300526 </v>
   <v>       0.00300526 </v>
   <v>       0.00601052 </v>
   <v>       0.00601052 </v>
   <v>       0.00601052 </v>
   <v>       0.00601052 </v>
   <v>       0.00601052 </v>
   <v>       0.00601052 </v>
   <v>       0.00300526 </v>
   <v>       0.00300526 </v>
   <v>       0.00601052 </v>
   <v>       0.00601052 </v>
   <v>       0.00601052 </v>
   <v>       0.00601052 </v>
   <v>       0.00300526 </v>
   <v>       0.00300526 </v>
   <v>       0.00601052 </v>
   <v>       0.00601052 </v>
   <v>       0.00300526 </v>
   <v>       0.00300526 </v>
   <v>       0.00300526 </v>
   <v>       0.00150263 </v>
   <v>       0.00601052 </v>
   <v>       0.00601052 </v>
   <v>       0.00601052 </v>
   <v>       0.00601052 </v>
   <v>       0.00601052 </v>
   <v>       0.00300526 </v>
   <v>       0.00601052 </v>
   <v>       0.00601052 </v>
   <v>       0.00601052 </v>
   <v>       0.00601052 </v>
   <v>       0.00601052 </v>
   <v>       0.00601052 </v>
   <v>       0.00601052 </v>
   <v>       0.00601052 </v>
   <v>       0.00300526 </v>
   <v>       0.00300526 </v>
   <v>       0.00601052 </v>
   <v>       0.00601052 </v>
   <v>       0.00601052 </v>
   <v>       0.00601052 </v>
   <v>       0.00601052 </v>
   <v>       0.00601052 </v>
   <v>       0.00300526 </v>
   <v>       0.00300526 </v>
   <v>       0.00601052 </v>
   <v>       0.00601052 </v>
   <v>       0.00601052 </v>
   <v>       0.00601052 </v>
   <v>       0.00300526 </v>
   <v>       0.00300526 </v>
   <v>       0.00601052 </v>
   <v>       0.00601052 </v>
   <v>       0.00300526 </v>
   <v>       0.00300526 </v>
   <v>       0.00300526 </v>
   <v>       0.00150263 </v>
   <v>       0.00601052 </v>
   <v>       0.00601052 </v>
   <v>       0.00601052 </v>
   <v>       0.00601052 </v>
   <v>       0.00601052 </v>
   <v>       0.00300526 </v>
   <v>       0.00601052 </v>
   <v>       0.00601052 </v>
   <v>       0.00601052 </v>
   <v>       0.00601052 </v>
   <v>       0.00601052 </v>
   <v>       0.00601052 </v>
   <v>       0.00601052 </v>
   <v>       0.00601052 </v>
   <v>       0.00300526 </v>
   <v>       0.00300526 </v>
   <v>       0.00601052 </v>
   <v>       0.00601052 </v>
   <v>       0.00601052 </v>
   <v>       0.00601052 </v>
   <v>       0.00601052 </v>
   <v>       0.00601052 </v>
   <v>       0.00300526 </v>
   <v>       0.00300526 </v>
   <v>       0.00601052 </v>
   <v>       0.00601052 </v>
   <v>       0.00601052 </v>
   <v>       0.00601052 </v>
   <v>       0.00300526 </v>
   <v>       0.00300526 </v>
   <v>       0.00601052 </v>
   <v>       0.00601052 </v>
   <v>       0.00300526 </v>
   <v>       0.00300526 </v>
   <v>       0.00300526 </v>
   <v>       0.00150263 </v>
   <v>       0.00601052 </v>
   <v>       0.00601052 </v>
   <v>       0.00601052 </v>
   <v>       0.00601052 </v>
   <v>       0.00601052 </v>
   <v>       0.00300526 </v>
   <v>       0.00601052 </v>
   <v>       0.00601052 </v>
   <v>       0.00601052 </v>
   <v>       0.00601052 </v>
   <v>       0.00601052 </v>
   <v>       0.00601052 </v>
   <v>       0.00601052 </v>
   <v>       0.00601052 </v>
   <v>       0.00300526 </v>
   <v>       0.00300526 </v>
   <v>       0.00601052 </v>
   <v>       0.00601052 </v>
   <v>       0.00601052 </v>
   <v>       0.00601052 </v>
   <v>       0.00601052 </v>
   <v>       0.00601052 </v>
   <v>       0.00300526 </v>
   <v>       0.00300526 </v>
   <v>       0.00601052 </v>
   <v>       0.00601052 </v>
   <v>       0.00601052 </v>
   <v>       0.00601052 </v>
   <v>       0.00300526 </v>
   <v>       0.00300526 </v>
   <v>       0.00601052 </v>
   <v>       0.00601052 </v>
   <v>       0.00300526 </v>
   <v>       0.00300526 </v>
   <v>       0.00300526 </v>
   <v>       0.00150263 </v>
   <v>       0.00601052 </v>
   <v>       0.00601052 </v>
   <v>       0.00601052 </v>
   <v>       0.00601052 </v>
   <v>       0.00601052 </v>
   <v>       0.00300526 </v>
   <v>       0.00601052 </v>
   <v>       0.00601052 </v>
   <v>       0.00601052 </v>
   <v>       0.00601052 </v>
   <v>       0.00601052 </v>
   <v>       0.00601052 </v>
   <v>       0.00601052 </v>
   <v>       0.00601052 </v>
   <v>       0.00300526 </v>
   <v>       0.00300526 </v>
   <v>       0.00601052 </v>
   <v>       0.00601052 </v>
   <v>       0.00601052 </v>
   <v>       0.00601052 </v>
   <v>       0.00601052 </v>
   <v>       0.00601052 </v>
   <v>       0.00300526 </v>
   <v>       0.00300526 </v>
   <v>       0.00601052 </v>
   <v>       0.00601052 </v>
   <v>       0.00601052 </v>
   <v>       0.00601052 </v>
   <v>       0.00300526 </v>
   <v>       0.00300526 </v>
   <v>       0.00601052 </v>
   <v>       0.00601052 </v>
   <v>       0.00300526 </v>
   <v>       0.00300526 </v>
   <v>       0.00300526 </v>
  </varray>
 </kpoints>
 <parameters>
  <separator name="general" >
   <i type="string" name="SYSTEM">unknown system</i>
   <i type="logical" name="LCOMPAT"> F  </i>
  </separator>
  <separator name="electronic" >
   <i type="string" name="PREC">accura</i>
   <i name="ENMAX">    520.00000000</i>
   <i name="ENAUG">    291.05200000</i>
   <i name="EDIFF">      0.00005000</i>
   <i type="int" name="IALGO">    38</i>
   <i type="int" name="IWAVPR">    10</i>
   <i type="int" name="NBANDS">    12</i>
   <i name="NELECT">     12.00000000</i>
   <i type="int" name="TURBO">     0</i>
   <i type="int" name="IRESTART">     0</i>
   <i type="int" name="NREBOOT">     0</i>
   <i type="int" name="NMIN">     0</i>
   <i name="EREF">      0.00000000</i>
   <separator name="electronic smearing" >
    <i type="int" name="ISMEAR">     1</i>
    <i name="SIGMA">      0.05000000</i>
    <i name="KSPACING">      0.50000000</i>
    <i type="logical" name="KGAMMA"> T  </i>
   </separator>
   <separator name="electronic projectors" >
    <i type="logical" name="LREAL"> F  </i>
    <v name="ROPT">      0.00000000</v>
    <i type="int" name="LMAXPAW">  -100</i>
    <i type="int" name="LMAXMIX">     2</i>
    <i type="logical" name="NLSPLINE"> F  </i>
   </separator>
   <separator name="electronic startup" >
    <i type="int" name="ISTART">     0</i>
    <i type="int" name="ICHARG">     2</i>
    <i type="int" name="INIWAV">     1</i>
   </separator>
   <separator name="electronic spin" >
    <i type="int" name="ISPIN">     1</i>
    <i type="logical" name="LNONCOLLINEAR"> F  </i>
    <v name="MAGMOM">      1.00000000      1.00000000      1.00000000      1.00000000</v>
    <i name="NUPDOWN">     -1.00000000</i>
    <i type="logical" name="LSORBIT"> F  </i>
    <v name="SAXIS">      0.00000000      0.00000000      1.00000000</v>
    <i type="logical" name="LSPIRAL"> F  </i>
    <v name="QSPIRAL">      0.00000000      0.00000000      0.00000000</v>
    <i type="logical" name="LZEROZ"> F  </i>
   </separator>
   <separator name="electronic exchange-correlation" >
    <i type="logical" name="LASPH"> T  </i>
    <i type="logical" name="LMETAGGA"> F  </i>
   </separator>
   <separator name="electronic convergence" >
    <i type="int" name="NELM">   100</i>
    <i type="int" name="NELMDL">    -5</i>
    <i type="int" name="NELMIN">     4</i>
    <i name="ENINI">    520.00000000</i>
    <separator name="electronic convergence detail" >
     <i type="logical" name="LDIAG"> T  </i>
     <i type="logical" name="LSUBROT"> F  </i>
     <i name="WEIMIN">      0.00000000</i>
     <i name="EBREAK">      0.00000104</i>
     <i name="DEPER">      0.30000000</i>
     <i type="int" name="NRMM">     4</i>
     <i name="TIME">      0.40000000</i>
    </separator>
   </separator>
   <separator name="electronic mixer" >
    <i name="AMIX">      0.40000000</i>
    <i name="BMIX">      1.00000000</i>
    <i name="AMIN">      0.10000000</i>
    <i name="AMIX_MAG">      1.60000000</i>
    <i name="BMIX_MAG">      1.00000000</i>
    <separator name="electronic mixer details" >
     <i type="int" name="IMIX">     4</i>
     <i type="logical" name="MIXFIRST"> F  </i>
     <i type="int" name="MAXMIX">   -45</i>
     <i name="WC">    100.00000000</i>
     <i type="int" name="INIMIX">     1</i>
     <i type="int" name="MIXPRE">     1</i>
     <i type="int" name="MREMOVE">     5</i>
    </separator>
   </separator>
   <separator name="electronic dipolcorrection" >
    <i type="logical" name="LDIPOL"> F  </i>
    <i type="logical" name="LMONO"> F  </i>
    <i type="int" name="IDIPOL">     0</i>
    <i name="EPSILON">      1.00000000</i>
    <v name="DIPOL">   -100.00000000   -100.00000000   -100.00000000</v>
    <i name="EFIELD">      0.00000000</i>
   </separator>
  </separator>
  <separator name="grids" >
   <i type="int" name="NGX">    30</i>
   <i type="int" name="NGY">    30</i>
   <i type="int" name="NGZ">    30</i>
   <i type="int" name="NGXF">    60</i>
   <i type="int" name="NGYF">    60</i>
   <i type="int" name="NGZF">    60</i>
   <i type="logical" name="ADDGRID"> T  </i>
  </separator>
  <separator name="ionic" >
   <i type="int" name="NSW">     0</i>
   <i type="int" name="IBRION">    -1</i>
   <i type="int" name="MDALGO">     0</i>
   <i type="int" name="ISIF">     2</i>
   <i name="PSTRESS">      0.00000000</i>
   <i name="EDIFFG">      0.00050000</i>
   <i type="int" name="NFREE">     0</i>
   <i name="POTIM">      0.50000000</i>
   <i name="SMASS">     -3.00000000</i>
   <i name="SCALEE">      1.00000000</i>
  </separator>
  <separator name="ionic md" >
   <i name="TEBEG">      0.00010000</i>
   <i name="TEEND">      0.00010000</i>
   <i type="int" name="NBLOCK">     1</i>
   <i type="int" name="KBLOCK">     1</i>
   <i type="int" name="NPACO">   256</i>
   <i name="APACO">     16.00000000</i>
  </separator>
  <separator name="symmetry" >
   <i type="int" name="ISYM">     2</i>
   <i name="SYMPREC">      0.00001000</i>
  </separator>
  <separator name="dos" >
   <i type="int" name="LORBIT">     0</i>
   <v name="RWIGS">     -1.00000000</v>
   <i type="int" name="NEDOS">   301</i>
   <i name="EMIN">     10.00000000</i>
   <i name="EMAX">    -10.00000000</i>
   <i name="EFERMI">      0.00000000</i>
  </separator>
  <separator name="writing" >
   <i type="int" name="NWRITE">     2</i>
   <i type="logical" name="LWAVE"> F  </i>
   <i type="logical" name="LDOWNSAMPLE"> F  </i>
   <i type="logical" name="LCHARG"> F  </i>
   <i type="logical" name="LPARD"> F  </i>
   <i type="logical" name="LVTOT"> F  </i>
   <i type="logical" name="LVHAR"> F  </i>
   <i type="logical" name="LELF"> F  </i>
   <i type="logical" name="LOPTICS"> F  </i>
   <v name="STM">      0.00000000      0.00000000      0.00000000      0.00000000      0.00000000      0.00000000      0.00000000</v>
  </separator>
  <separator name="performance" >
   <i type="int" name="NPAR">     4</i>
   <i type="int" name="NSIM">     4</i>
   <i type="int" name="NBLK">    -1</i>
   <i type="logical" name="LPLANE"> T  </i>
   <i type="logical" name="LSCALAPACK"> T  </i>
   <i type="logical" name="LSCAAWARE"> F  </i>
   <i type="logical" name="LSCALU"> F  </i>
   <i type="logical" name="LASYNC"> F  </i>
   <i type="logical" name="LORBITALREAL"> F  </i>
  </separator>
  <separator name="miscellaneous" >
   <i type="int" name="IDIOT">     3</i>
   <i type="int" name="ISPECIAL">     0</i>
   <i type="logical" name="LMUSIC"> F  </i>
   <v name="POMASS">     26.98100000</v>
   <v name="DARWINR">      0.00000000</v>
   <v name="DARWINV">      1.00000000</v>
   <i type="logical" name="LCORR"> T  </i>
  </separator>
  <i type="logical" name="GGA_COMPAT"> T  </i>
  <i type="logical" name="LBERRY"> F  </i>
  <i type="int" name="ICORELEVEL">     0</i>
  <i type="logical" name="LDAU"> F  </i>
  <i type="int" name="I_CONSTRAINED_M">     0</i>
  <separator name="electronic exchange-correlation" >
   <i type="string" name="GGA">--</i>
   <i type="int" name="VOSKOWN">     0</i>
   <i type="logical" name="LHFCALC"> F  </i>
   <i type="string" name="PRECFOCK"></i>
   <i type="logical" name="LSYMGRAD"> F  </i>
   <i type="logical" name="LHFONE"> F  </i>
   <i type="logical" name="LRHFCALC"> F  </i>
   <i type="logical" name="LTHOMAS"> F  </i>
   <i type="logical" name="LMODELHF"> F  </i>
   <i name="ENCUT4O">     -1.00000000</i>
   <i type="int" name="EXXOEP">     0</i>
   <i type="int" name="FOURORBIT">     0</i>
   <i name="AEXX">      0.00000000</i>
   <i name="HFALPHA">      0.00000000</i>
   <i name="MCALPHA">      0.00000000</i>
   <i name="ALDAX">      1.00000000</i>
   <i name="AGGAX">      1.00000000</i>
   <i name="ALDAC">      1.00000000</i>
   <i name="AGGAC">      1.00000000</i>
   <i type="int" name="NKREDX">     1</i>
   <i type="int" name="NKREDY">     1</i>
   <i type="int" name="NKREDZ">     1</i>
   <i type="logical" name="SHIFTRED"> F  </i>
   <i type="logical" name="ODDONLY"> F  </i>
   <i type="logical" name="EVENONLY"> F  </i>
   <i type="int" name="LMAXFOCK">     0</i>
   <i type="int" name="NMAXFOCKAE">     0</i>
   <i type="logical" name="LFOCKAEDFT"> F  </i>
   <i name="HFSCREEN">      0.00000000</i>
   <i name="HFSCREENC">      0.00000000</i>
   <i type="int" name="NBANDSGWLOW">     0</i>
  </separator>
  <separator name="vdW DFT" >
   <i type="logical" name="LUSE_VDW"> F  </i>
   <i name="Zab_VDW">     -0.84910000</i>
   <i name="PARAM1">      0.12340000</i>
   <i name="PARAM2">      1.00000000</i>
   <i name="PARAM3">      0.00000000</i>
  </separator>
  <separator name="model GW" >
   <i type="int" name="MODEL_GW">     0</i>
   <i name="MODEL_EPS0">      9.89775513</i>
   <i name="MODEL_ALPHA">      1.00000000</i>
  </separator>
  <separator name="linear response parameters" >
   <i type="logical" name="LEPSILON"> F  </i>
   <i type="logical" name="LRPA"> F  </i>
   <i type="logical" name="LNABLA"> F  </i>
   <i type="logical" name="LVEL"> F  </i>
   <i type="int" name="KINTER">     0</i>
   <i name="CSHIFT">      0.10000000</i>
   <i name="OMEGAMAX">     -1.00000000</i>
   <i name="DEG_THRESHOLD">      0.00200000</i>
   <i name="RTIME">     -0.10000000</i>
   <i name="WPLASMAI">      0.00000000</i>
   <v name="DFIELD">      0.00000000      0.00000000      0.00000000</v>
   <v name="WPLASMA">      0.00000000      0.00000000      0.00000000      0.00000000      0.00000000      0.00000000      0.00000000      0.00000000      0.00000000</v>
  </separator>
  <separator name="orbital magnetization" >
   <i type="logical" name="NUCIND"> F  </i>
   <v name="MAGPOS">      0.00000000      0.00000000      0.00000000</v>
   <i type="logical" name="LNICSALL"> T  </i>
   <i type="logical" name="ORBITALMAG"> F  </i>
   <i type="logical" name="LMAGBLOCH"> F  </i>
   <i type="logical" name="LCHIMAG"> F  </i>
   <i type="logical" name="LGAUGE"> T  </i>
   <i type="int" name="MAGATOM">     0</i>
   <v name="MAGDIPOL">      0.00000000      0.00000000      0.00000000</v>
   <v name="AVECCONST">      0.00000000      0.00000000      0.00000000</v>
  </separator>
  <separator name="response functions" >
   <i type="logical" name="LADDER"> F  </i>
   <i type="logical" name="LRPAFORCE"> F  </i>
   <i type="logical" name="LFXC"> F  </i>
   <i type="logical" name="LHARTREE"> T  </i>
   <i type="int" name="IBSE">     0</i>
   <v type="int" name="KPOINT">    -1     0     0     0</v>
   <i type="logical" name="LTCTE"> F  </i>
   <i type="logical" name="LTETE"> F  </i>
   <i type="logical" name="LTRIPLET"> F  </i>
   <i type="logical" name="LFXCEPS"> F  </i>
   <i type="logical" name="LFXHEG"> F  </i>
   <i type="int" name="NATURALO">     2</i>
   <i type="logical" name="L2ORDER"> F  </i>
   <i type="logical" name="LMP2LT"> F  </i>
   <i type="logical" name="LUSEW"> F  </i>
   <i name="ENCUTGW">     -2.00000000</i>
   <i name="ENCUTGWSOFT">     -2.00000000</i>
   <i name="ENCUTLF">     -1.00000000</i>
   <i type="int" name="LMAXMP2">    -1</i>
   <i name="SCISSOR">      0.00000000</i>
   <i type="int" name="NOMEGA">     0</i>
   <i type="int" name="NOMEGAR">     0</i>
   <i type="int" name="NBANDSGW">    -1</i>
   <i type="int" name="NBANDSO">    -1</i>
   <i type="int" name="NBANDSV">    -1</i>
   <i type="int" name="NELM">   100</i>
   <i type="int" name="NELMHF">     1</i>
   <i type="int" name="DIM">     3</i>
   <i type="int" name="ANTIRES">     0</i>
   <i name="OMEGAMAX">    -30.00000000</i>
   <i name="OMEGAMIN">    -30.00000000</i>
   <i name="OMEGATL">   -200.00000000</i>
   <i type="int" name="OMEGAGRID">   140</i>
   <i name="CSHIFT">     -0.10000000</i>
   <i type="logical" name="SELFENERGY"> F  </i>
   <i type="logical" name="LSPECTRAL"> F  </i>
   <i type="logical" name="LSPECTRALGW"> F  </i>
   <i type="logical" name="LSINGLES"> F  </i>
   <i type="logical" name="LFERMIGW"> F  </i>
   <i type="logical" name="ODDONLYGW"> F  </i>
   <i type="logical" name="EVENONLYGW"> F  </i>
   <i type="int" name="NKREDLFX">     1</i>
   <i type="int" name="NKREDLFY">     1</i>
   <i type="int" name="NKREDLFZ">     1</i>
   <i type="int" name="MAXMEM">  2800</i>
   <i type="int" name="TELESCOPE">     0</i>
   <i type="int" name="TAUPAR">     1</i>
   <i type="int" name="OMEGAPAR">    -1</i>
   <i name="LAMBDA">      1.00000000</i>
  </separator>
  <separator name="External order field" >
   <i name="OFIELD_KAPPA">      0.00000000</i>
   <v name="OFIELD_K">      0.00000000      0.00000000      0.00000000</v>
   <i name="OFIELD_Q6_NEAR">      0.00000000</i>
   <i name="OFIELD_Q6_FAR">      0.00000000</i>
   <i name="OFIELD_A">      0.00000000</i>
  </separator>
 </parameters>
 <atominfo>
  <atoms>       4 </atoms>
  <types>       1 </types>
  <array name="atoms" >
   <dimension dim="1">ion</dimension>
   <field type="string">element</field>
   <field type="int">atomtype</field>
   <set>
    <rc><c>Al</c><c>   1</c></rc>
    <rc><c>Al</c><c>   1</c></rc>
    <rc><c>Al</c><c>   1</c></rc>
    <rc><c>Al</c><c>   1</c></rc>
   </set>
  </array>
  <array name="atomtypes" >
   <dimension dim="1">type</dimension>
   <field type="int">atomspertype</field>
   <field type="string">element</field>
   <field>mass</field>
   <field>valence</field>
   <field type="string">pseudopotential</field>
   <set>
    <rc><c>   4</c><c>Al</c><c>     26.98100000</c><c>      3.00000000</c><c>  PAW_PBE Al 04Jan2001                  </c></rc>
   </set>
  </array>
 </atominfo>
 <structure name="initialpos" >
  <crystal>
   <varray name="basis" >
    <v>       4.04336400       0.00000000       0.00000000 </v>
    <v>       0.24260200       4.03608000       0.00000000 </v>
    <v>       0.00000000       0.00000000       4.04336400 </v>
   </varray>
   <i name="volume">     65.98503418 </i>
   <varray name="rec_basis" >
    <v>       0.24731882      -0.01486592       0.00000000 </v>
    <v>       0.00000000       0.24776516       0.00000000 </v>
    <v>       0.00000000       0.00000000       0.24731882 </v>
   </varray>
  </crystal>
  <varray name="positions" >
   <v>       0.00000000       0.00000000       0.00000000 </v>
   <v>       0.00000000       0.50000000       0.50000000 </v>
   <v>       0.50000000       0.00000000       0.50000000 </v>
   <v>       0.50000000       0.50000000       0.00000000 </v>
  </varray>
 </structure>
 <calculation>
  <scstep>
   <time name="dav">    0.78    0.82</time>
   <time name="total">    0.88    0.92</time>
   <energy>
    <i name="alphaZ">     -0.81444162 </i>
    <i name="ewald">   -293.97494568 </i>
    <i name="hartreedc">     -0.42384070 </i>
    <i name="XCdc">   -104.95565104 </i>
    <i name="pawpsdc">    264.80062850 </i>
    <i name="pawaedc">   -136.98248303 </i>
    <i name="eentropy">      0.00032060 </i>
    <i name="bandstr">     65.65188457 </i>
    <i name="atom">    214.15382826 </i>
    <i name="e_fr_energy">      7.45529985 </i>
    <i name="e_wo_entrp">      7.45497926 </i>
    <i name="e_0_energy">      7.45519299 </i>
   </energy>
  </scstep>
  <scstep>
   <time name="dav">    0.90    0.90</time>
   <time name="total">    0.90    0.90</time>
   <energy>
    <i name="e_fr_energy">    -14.31305636 </i>
    <i name="e_wo_entrp">    -14.31286808 </i>
    <i name="e_0_energy">    -14.31299360 </i>
   </energy>
  </scstep>
  <scstep>
   <time name="dav">    0.94    0.94</time>
   <time name="total">    0.94    0.94</time>
   <energy>
    <i name="e_fr_energy">    -15.03377342 </i>
    <i name="e_wo_entrp">    -15.03341692 </i>
    <i name="e_0_energy">    -15.03365459 </i>
   </energy>
  </scstep>
  <scstep>
   <time name="dav">    0.84    0.84</time>
   <time name="total">    0.84    0.84</time>
   <energy>
    <i name="e_fr_energy">    -15.03931114 </i>
    <i name="e_wo_entrp">    -15.03896457 </i>
    <i name="e_0_energy">    -15.03919561 </i>
   </energy>
  </scstep>
  <scstep>
   <time name="dav">    0.91    0.91</time>
   <time name="total">    0.98    0.98</time>
   <energy>
    <i name="e_fr_energy">    -15.03936647 </i>
    <i name="e_wo_entrp">    -15.03902003 </i>
    <i name="e_0_energy">    -15.03925099 </i>
   </energy>
  </scstep>
  <scstep>
   <time name="dav">    0.84    0.84</time>
   <time name="total">    0.99    0.99</time>
   <energy>
    <i name="e_fr_energy">    -14.98762398 </i>
    <i name="e_wo_entrp">    -14.98730493 </i>
    <i name="e_0_energy">    -14.98751763 </i>
   </energy>
  </scstep>
  <scstep>
   <time name="dav">    0.82    0.82</time>
   <time name="total">    0.97    0.97</time>
   <energy>
    <i name="e_fr_energy">    -14.94997491 </i>
    <i name="e_wo_entrp">    -14.94970500 </i>
    <i name="e_0_energy">    -14.94988494 </i>
   </energy>
  </scstep>
  <scstep>
   <time name="dav">    0.90    0.90</time>
   <time name="total">    1.05    1.05</time>
   <energy>
    <i name="e_fr_energy">    -14.94987115 </i>
    <i name="e_wo_entrp">    -14.94960378 </i>
    <i name="e_0_energy">    -14.94978203 </i>
   </energy>
  </scstep>
  <scstep>
   <time name="dav">    0.61    0.61</time>
   <time name="total">    0.70    0.70</time>
   <energy>
    <i name="alphaZ">     -0.81444162 </i>
    <i name="ewald">   -293.97494568 </i>
    <i name="hartreedc">     -0.45341021 </i>
    <i name="XCdc">   -104.51412875 </i>
    <i name="pawpsdc">    565.74752987 </i>
    <i name="pawaedc">   -437.98336189 </i>
    <i name="eentropy">     -0.00026669 </i>
    <i name="bandstr">     42.88933230 </i>
    <i name="atom">    214.15382826 </i>
    <i name="e_fr_energy">    -14.94986442 </i>
    <i name="e_wo_entrp">    -14.94959772 </i>
    <i name="e_0_energy">    -14.94977552 </i>
   </energy>
  </scstep>
  <structure>
   <crystal>
    <varray name="basis" >
     <v>       4.04336400       0.00000000       0.00000000 </v>
     <v>       0.24260200       4.03608000       0.00000000 </v>
     <v>       0.00000000       0.00000000       4.04336400 </v>
    </varray>
    <i name="volume">     65.98503418 </i>
    <varray name="rec_basis" >
     <v>       0.24731882      -0.01486592       0.00000000 </v>
     <v>       0.00000000       0.24776516       0.00000000 </v>
     <v>       0.00000000       0.00000000       0.24731882 </v>
    </varray>
   </crystal>
   <varray name="positions" >
    <v>       0.00000000       0.00000000       0.00000000 </v>
    <v>       0.00000000       0.50000000       0.50000000 </v>
    <v>       0.50000000       0.00000000       0.50000000 </v>
    <v>       0.50000000       0.50000000       0.00000000 </v>
   </varray>
  </structure>
  <varray name="forces" >
   <v>      -0.00000000       0.00000000       0.00000000 </v>
   <v>      -0.00000000      -0.00000000      -0.00000000 </v>
   <v>       0.00000000       0.00000000       0.00000000 </v>
   <v>      -0.00000000      -0.00000000      -0.00000000 </v>
  </varray>
  <varray name="stress" >
   <v>       3.77277257     -21.69979950       0.00000000 </v>
   <v>     -21.69979950       6.38145166       0.00000000 </v>
   <v>       0.00000000       0.00000000      -0.58816484 </v>
  </varray>
  <energy>
   <i name="e_fr_energy">    -14.94986442 </i>
   <i name="e_wo_entrp">    -14.94977552 </i>
   <i name="e_0_energy">     -0.00026669 </i>
  </energy>
  <time name="totalsc">    9.20    9.27</time>
  <eigenvalues>
   <array>
    <dimension dim="1">band</dimension>
    <dimension dim="2">kpoint</dimension>
    <dimension dim="3">spin</dimension>
    <field>eigene</field>
    <field>occ</field>
    <set>
     <set comment="spin 1">
      <set comment="kpoint 1">
       <r>   -3.1355    1.0000 </r>
       <r>    5.0695    1.0000 </r>
       <r>    5.0856    1.0000 </r>
       <r>    5.0856    1.0000 </r>
       <r>    6.3799    1.0000 </r>
       <r>    6.4261    1.0000 </r>
       <r>    6.4261    1.0000 </r>
       <r>   12.5610    0.0000 </r>
       <r>   13.0593    0.0000 </r>
       <r>   13.2658    0.0000 </r>
       <r>   13.2658    0.0000 </r>
       <r>   13.6121    0.0000 </r>
      </set>
      <set comment="kpoint 2">
       <r>   -3.0605    1.0000 </r>
       <r>    4.1110    1.0000 </r>
       <r>    5.1382    1.0000 </r>
       <r>    5.1478    1.0000 </r>
       <r>    6.4523    1.0000 </r>
       <r>    6.5047    1.0000 </r>
       <r>    7.5300    1.0000 </r>
       <r>   11.5129    0.0000 </r>
       <r>   11.9734    0.0000 </r>
       <r>   13.0986    0.0000 </r>
       <r>   13.3166    0.0000 </r>
       <r>   13.3864    0.0000 </r>
      </set>
      <set comment="kpoint 3">
       <r>   -2.8354    1.0000 </r>
       <r>    2.8018    1.0000 </r>
       <r>    5.3351    1.0000 </r>
       <r>    5.3444    1.0000 </r>
       <r>    6.6679    1.0000 </r>
       <r>    6.7381    1.0000 </r>
       <r>    9.2262   -0.0000 </r>
       <r>   10.3014    0.0000 </r>
       <r>   10.6606    0.0000 </r>
       <r>   12.0925    0.0000 </r>
       <r>   12.4717    0.0000 </r>
       <r>   13.4762    0.0000 </r>
      </set>
      <set comment="kpoint 4">
       <r>   -2.4612    1.0000 </r>
       <r>    1.5852    1.0000 </r>
       <r>    5.6494    1.0000 </r>
       <r>    5.6883    1.0000 </r>
       <r>    7.0218    1.0000 </r>
       <r>    7.1186    1.0000 </r>
       <r>    9.1988   -0.0000 </r>
       <r>    9.4844    0.0000 </r>
       <r>   11.0341    0.0000 </r>
       <r>   11.0847    0.0000 </r>
       <r>   11.3636    0.0000 </r>
       <r>   13.7558    0.0000 </r>
      </set>
      <set comment="kpoint 5">
       <r>   -1.9390    1.0000 </r>
       <r>    0.4955    1.0000 </r>
       <r>    6.0931    1.0000 </r>
       <r>    6.1702    1.0000 </r>
       <r>    7.4969    1.0000 </r>
       <r>    7.6242    1.0000 </r>
       <r>    8.2266   -0.0000 </r>
       <r>    8.4472   -0.0000 </r>
       <r>   10.0660    0.0000 </r>
       <r>   10.3308    0.0000 </r>
       <r>   13.0578    0.0000 </r>
       <r>   14.1617    0.0000 </r>
      </set>
      <set comment="kpoint 6">
       <r>   -1.2705    1.0000 </r>
       <r>   -0.4580    1.0000 </r>
       <r>    6.6682    1.0000 </r>
       <r>    6.7904    1.0000 </r>
       <r>    7.3739    1.0000 </r>
       <r>    7.5493    1.0000 </r>
       <r>    8.0405   -0.0082 </r>
       <r>    8.1386   -0.0002 </r>
       <r>    9.3397   -0.0000 </r>
       <r>    9.4892    0.0000 </r>
       <r>   14.6960    0.0000 </r>
       <r>   14.9081    0.0000 </r>
      </set>
      <set comment="kpoint 7">
       <r>   -2.9944    1.0000 </r>
       <r>    4.2584    1.0000 </r>
       <r>    4.2584    1.0000 </r>
       <r>    5.1987    1.0000 </r>
       <r>    6.5183    1.0000 </r>
       <r>    7.5108    1.0000 </r>
       <r>    7.5108    1.0000 </r>
       <r>   10.2824    0.0000 </r>
       <r>   12.1260    0.0000 </r>
       <r>   12.1260    0.0000 </r>
       <r>   13.2118    0.0000 </r>
       <r>   13.2118    0.0000 </r>
      </set>
      <set comment="kpoint 8">
       <r>   -2.7786    1.0000 </r>
       <r>    2.9488    1.0000 </r>
       <r>    4.5448    1.0000 </r>
       <r>    5.3967    1.0000 </r>
       <r>    6.7280    1.0000 </r>
       <r>    7.6330    1.0000 </r>
       <r>    9.0805   -0.0000 </r>
       <r>    9.1954   -0.0000 </r>
       <r>   10.8049    0.0000 </r>
       <r>   12.2165    0.0000 </r>
       <r>   12.4178    0.0000 </r>
       <r>   13.4537    0.0000 </r>
      </set>
      <set comment="kpoint 9">
       <r>   -2.4135    1.0000 </r>
       <r>    1.7264    1.0000 </r>
       <r>    4.9682    1.0000 </r>
       <r>    5.7324    1.0000 </r>
       <r>    7.0765    1.0000 </r>
       <r>    7.8945    1.0071 </r>
       <r>    7.9897    0.6126 </r>
       <r>    9.6201    0.0000 </r>
       <r>   11.0503    0.0000 </r>
       <r>   11.1523    0.0000 </r>
       <r>   12.8116    0.0000 </r>
       <r>   12.8487    0.0000 </r>
      </set>
      <set comment="kpoint 10">
       <r>   -1.9004    1.0000 </r>
       <r>    0.6296    1.0000 </r>
       <r>    5.5253    1.0000 </r>
       <r>    6.2061    1.0000 </r>
       <r>    7.0074    1.0000 </r>
       <r>    7.5781    1.0000 </r>
       <r>    8.2849   -0.0000 </r>
       <r>    8.5744   -0.0000 </r>
       <r>   10.1659    0.0000 </r>
       <r>   11.7424    0.0000 </r>
       <r>   13.0341    0.0000 </r>
       <r>   13.4182    0.0000 </r>
      </set>
      <set comment="kpoint 11">
       <r>   -1.2409    1.0000 </r>
       <r>   -0.3315    1.0000 </r>
       <r>    6.1805    1.0000 </r>
       <r>    6.2081    1.0000 </r>
       <r>    6.8180    1.0000 </r>
       <r>    7.6680    1.0000 </r>
       <r>    8.1736   -0.0000 </r>
       <r>    8.7038   -0.0000 </r>
       <r>    9.4047    0.0000 </r>
       <r>   10.8007    0.0000 </r>
       <r>   13.9609    0.0000 </r>
       <r>   14.1248    0.0000 </r>
      </set>
      <set comment="kpoint 12">
       <r>   -1.1520    1.0000 </r>
       <r>   -0.4373    1.0000 </r>
       <r>    5.4854    1.0000 </r>
       <r>    6.9007    1.0000 </r>
       <r>    6.9816    1.0000 </r>
       <r>    7.5686    1.0000 </r>
       <r>    8.4060   -0.0000 </r>
       <r>    8.7936   -0.0000 </r>
       <r>    9.6614    0.0000 </r>
       <r>   10.0959    0.0000 </r>
       <r>   13.2879    0.0000 </r>
       <r>   14.2903    0.0000 </r>
      </set>
      <set comment="kpoint 13">
       <r>   -1.8288    1.0000 </r>
       <r>    0.5075    1.0000 </r>
       <r>    4.9289    1.0000 </r>
       <r>    6.2721    1.0000 </r>
       <r>    7.4292    1.0000 </r>
       <r>    8.3089   -0.0000 </r>
       <r>    8.4582   -0.0000 </r>
       <r>    8.8509   -0.0000 </r>
       <r>   10.2090    0.0000 </r>
       <r>   10.4332    0.0000 </r>
       <r>   12.7502    0.0000 </r>
       <r>   13.1103    0.0000 </r>
      </set>
      <set comment="kpoint 14">
       <r>   -2.3595    1.0000 </r>
       <r>    1.5890    1.0000 </r>
       <r>    4.5128    1.0000 </r>
       <r>    5.7819    1.0000 </r>
       <r>    7.0881    1.0000 </r>
       <r>    8.3983   -0.0000 </r>
       <r>    9.2389   -0.0000 </r>
       <r>    9.4871    0.0000 </r>
       <r>   11.0747    0.0000 </r>
       <r>   11.2359    0.0000 </r>
       <r>   11.3357    0.0000 </r>
       <r>   12.3490    0.0000 </r>
      </set>
      <set comment="kpoint 15">
       <r>   -2.7425    1.0000 </r>
       <r>    2.7981    1.0000 </r>
       <r>    4.2377    1.0000 </r>
       <r>    5.4297    1.0000 </r>
       <r>    6.7471    1.0000 </r>
       <r>    7.9838    0.7062 </r>
       <r>    9.3898    0.0000 </r>
       <r>   10.4270    0.0000 </r>
       <r>   10.6551    0.0000 </r>
       <r>   12.0854    0.0000 </r>
       <r>   12.1093    0.0000 </r>
       <r>   12.2583    0.0000 </r>
      </set>
      <set comment="kpoint 16">
       <r>   -2.9764    1.0000 </r>
       <r>    4.1039    1.0000 </r>
       <r>    4.1039    1.0000 </r>
       <r>    5.2152    1.0000 </r>
       <r>    6.5299    1.0000 </r>
       <r>    7.6892    1.0000 </r>
       <r>    7.6892    1.0000 </r>
       <r>   11.6919    0.0000 </r>
       <r>   11.9600    0.0000 </r>
       <r>   11.9600    0.0000 </r>
       <r>   12.6982    0.0000 </r>
       <r>   13.1164    0.0000 </r>
      </set>
      <set comment="kpoint 17">
       <r>   -2.5721    1.0000 </r>
       <r>    3.2383    1.0000 </r>
       <r>    3.2383    1.0000 </r>
       <r>    5.5866    1.0000 </r>
       <r>    6.9269    1.0000 </r>
       <r>    7.8708    1.0011 </r>
       <r>    9.3001   -0.0000 </r>
       <r>    9.3001   -0.0000 </r>
       <r>   11.0878    0.0000 </r>
       <r>   11.0878    0.0000 </r>
       <r>   12.4768    0.0000 </r>
       <r>   12.4768    0.0000 </r>
      </set>
      <set comment="kpoint 18">
       <r>   -2.2165    1.0000 </r>
       <r>    2.0119    1.0000 </r>
       <r>    3.6689    1.0000 </r>
       <r>    5.9142    1.0000 </r>
       <r>    6.7380    1.0000 </r>
       <r>    7.2985    1.0000 </r>
       <r>    9.5361    0.0000 </r>
       <r>    9.8944    0.0000 </r>
       <r>   11.1426    0.0000 </r>
       <r>   11.4181    0.0000 </r>
       <r>   11.5095    0.0000 </r>
       <r>   12.8708    0.0000 </r>
      </set>
      <set comment="kpoint 19">
       <r>   -1.7130    1.0000 </r>
       <r>    0.9095    1.0000 </r>
       <r>    4.2384    1.0000 </r>
       <r>    5.7684    1.0000 </r>
       <r>    6.3797    1.0000 </r>
       <r>    7.7723    1.0000 </r>
       <r>    8.8400   -0.0000 </r>
       <r>    9.8497    0.0000 </r>
       <r>   10.4770    0.0000 </r>
       <r>   12.0696    0.0000 </r>
       <r>   13.1022    0.0000 </r>
       <r>   13.4081    0.0000 </r>
      </set>
      <set comment="kpoint 20">
       <r>   -1.0632    1.0000 </r>
       <r>   -0.0581    1.0000 </r>
       <r>    4.9235    1.0000 </r>
       <r>    4.9425    1.0000 </r>
       <r>    6.9835    1.0000 </r>
       <r>    7.9249    1.0306 </r>
       <r>    8.3863   -0.0000 </r>
       <r>    9.4188    0.0000 </r>
       <r>   10.5210    0.0000 </r>
       <r>   12.4905    0.0000 </r>
       <r>   12.6987    0.0000 </r>
       <r>   12.7678    0.0000 </r>
      </set>
      <set comment="kpoint 21">
       <r>   -0.8857    1.0000 </r>
       <r>   -0.2693    1.0000 </r>
       <r>    4.2155    1.0000 </r>
       <r>    5.7707    1.0000 </r>
       <r>    7.1490    1.0000 </r>
       <r>    7.7260    1.0000 </r>
       <r>    8.6746   -0.0000 </r>
       <r>    9.1104   -0.0000 </r>
       <r>   11.1404    0.0000 </r>
       <r>   11.6745    0.0000 </r>
       <r>   12.0151    0.0000 </r>
       <r>   13.3136    0.0000 </r>
      </set>
      <set comment="kpoint 22">
       <r>   -1.5701    1.0000 </r>
       <r>    0.6659    1.0000 </r>
       <r>    3.6475    1.0000 </r>
       <r>    6.5118    1.0000 </r>
       <r>    6.6739    1.0000 </r>
       <r>    8.1001   -0.0063 </r>
       <r>    8.6075   -0.0000 </r>
       <r>    9.8416    0.0000 </r>
       <r>   11.1028    0.0000 </r>
       <r>   11.4684    0.0000 </r>
       <r>   11.8918    0.0000 </r>
       <r>   12.6489    0.0000 </r>
      </set>
      <set comment="kpoint 23">
       <r>   -2.1088    1.0000 </r>
       <r>    1.7378    1.0000 </r>
       <r>    3.2213    1.0000 </r>
       <r>    6.0131    1.0000 </r>
       <r>    7.1709    1.0000 </r>
       <r>    8.1933   -0.0000 </r>
       <r>    9.6282    0.0000 </r>
       <r>    9.9985    0.0000 </r>
       <r>   11.0592    0.0000 </r>
       <r>   11.3460    0.0000 </r>
       <r>   11.4286    0.0000 </r>
       <r>   12.6836    0.0000 </r>
      </set>
      <set comment="kpoint 24">
       <r>   -2.5000    1.0000 </r>
       <r>    2.9380    1.0000 </r>
       <r>    2.9380    1.0000 </r>
       <r>    5.6525    1.0000 </r>
       <r>    6.9513    1.0000 </r>
       <r>    9.2531   -0.0000 </r>
       <r>    9.6726    0.0000 </r>
       <r>    9.6726    0.0000 </r>
       <r>   10.7880    0.0000 </r>
       <r>   10.7880    0.0000 </r>
       <r>   12.2790    0.0000 </r>
       <r>   12.2790    0.0000 </r>
      </set>
      <set comment="kpoint 25">
       <r>   -1.8708    1.0000 </r>
       <r>    2.4406    1.0000 </r>
       <r>    2.4406    1.0000 </r>
       <r>    5.6259    1.0000 </r>
       <r>    6.2337    1.0000 </r>
       <r>    7.6278    1.0000 </r>
       <r>   10.3072    0.0000 </r>
       <r>   10.3072    0.0000 </r>
       <r>   11.3261    0.0000 </r>
       <r>   11.3261    0.0000 </r>
       <r>   11.8559    0.0000 </r>
       <r>   11.8559    0.0000 </r>
      </set>
      <set comment="kpoint 26">
       <r>   -1.3774    1.0000 </r>
       <r>    1.3340    1.0000 </r>
       <r>    3.0108    1.0000 </r>
       <r>    4.6319    1.0000 </r>
       <r>    6.6912    1.0000 </r>
       <r>    8.1053   -0.0043 </r>
       <r>    9.2440   -0.0000 </r>
       <r>   10.7419    0.0000 </r>
       <r>   10.8586    0.0000 </r>
       <r>   11.7924    0.0000 </r>
       <r>   12.3102    0.0000 </r>
       <r>   12.4038    0.0000 </r>
      </set>
      <set comment="kpoint 27">
       <r>   -0.7379    1.0000 </r>
       <r>    0.3610    1.0000 </r>
       <r>    3.7196    1.0000 </r>
       <r>    3.7717    1.0000 </r>
       <r>    7.2870    1.0000 </r>
       <r>    8.3201   -0.0000 </r>
       <r>    8.7180   -0.0000 </r>
       <r>    9.8467    0.0000 </r>
       <r>   11.5484    0.0000 </r>
       <r>   11.5735    0.0000 </r>
       <r>   12.2685    0.0000 </r>
       <r>   12.9888    0.0000 </r>
      </set>
      <set comment="kpoint 28">
       <r>   -0.4727    1.0000 </r>
       <r>    0.0456    1.0000 </r>
       <r>    3.0499    1.0000 </r>
       <r>    4.5620    1.0000 </r>
       <r>    7.5354    1.0000 </r>
       <r>    8.0215    0.1290 </r>
       <r>    9.0628   -0.0000 </r>
       <r>    9.4558    0.0000 </r>
       <r>   10.8804    0.0000 </r>
       <r>   12.2984    0.0000 </r>
       <r>   12.3762    0.0000 </r>
       <r>   12.8699    0.0000 </r>
      </set>
      <set comment="kpoint 29">
       <r>   -1.1638    1.0000 </r>
       <r>    0.9701    1.0000 </r>
       <r>    2.4693    1.0000 </r>
       <r>    5.5256    1.0000 </r>
       <r>    6.8896    1.0000 </r>
       <r>    8.4201   -0.0000 </r>
       <r>    8.8949   -0.0000 </r>
       <r>   10.2953    0.0000 </r>
       <r>   10.3250    0.0000 </r>
       <r>   11.7088    0.0000 </r>
       <r>   12.8238    0.0000 </r>
       <r>   13.3417    0.0000 </r>
      </set>
      <set comment="kpoint 30">
       <r>   -1.7097    1.0000 </r>
       <r>    2.0315    1.0000 </r>
       <r>    2.0315    1.0000 </r>
       <r>    6.3823    1.0000 </r>
       <r>    6.5564    1.0000 </r>
       <r>    7.9742    0.8373 </r>
       <r>    9.9075    0.0000 </r>
       <r>    9.9075    0.0000 </r>
       <r>   11.1370    0.0000 </r>
       <r>   11.1370    0.0000 </r>
       <r>   12.3709    0.0000 </r>
       <r>   12.3709    0.0000 </r>
      </set>
      <set comment="kpoint 31">
       <r>   -0.8945    1.0000 </r>
       <r>    1.9017    1.0000 </r>
       <r>    1.9017    1.0000 </r>
       <r>    3.6224    1.0000 </r>
       <r>    7.1407    1.0000 </r>
       <r>    8.5762   -0.0000 </r>
       <r>    9.7865    0.0000 </r>
       <r>    9.7865    0.0000 </r>
       <r>   11.3026    0.0000 </r>
       <r>   11.3026    0.0000 </r>
       <r>   11.4263    0.0000 </r>
       <r>   12.8746    0.0000 </r>
      </set>
      <set comment="kpoint 32">
       <r>   -0.2659    1.0000 </r>
       <r>    0.9246    1.0000 </r>
       <r>    2.6102    1.0000 </r>
       <r>    2.7479    1.0000 </r>
       <r>    7.7286    1.0000 </r>
       <r>    8.8538   -0.0000 </r>
       <r>    9.1820   -0.0000 </r>
       <r>   10.3889    0.0000 </r>
       <r>   10.4677    0.0000 </r>
       <r>   10.5863    0.0000 </r>
       <r>   11.9760    0.0000 </r>
       <r>   12.0531    0.0000 </r>
      </set>
      <set comment="kpoint 33">
       <r>    0.0858    1.0000 </r>
       <r>    0.5064    1.0000 </r>
       <r>    2.0127    1.0000 </r>
       <r>    3.4560    1.0000 </r>
       <r>    8.0603   -0.0351 </r>
       <r>    8.4551   -0.0000 </r>
       <r>    9.5945    0.0000 </r>
       <r>    9.8843    0.0000 </r>
       <r>    9.9164    0.0000 </r>
       <r>   11.2875    0.0000 </r>
       <r>   11.3497    0.0000 </r>
       <r>   12.7701    0.0000 </r>
      </set>
      <set comment="kpoint 34">
       <r>   -0.6112    1.0000 </r>
       <r>    1.4195    1.0000 </r>
       <r>    1.4195    1.0000 </r>
       <r>    4.4328    1.0000 </r>
       <r>    7.4056    1.0000 </r>
       <r>    8.9333   -0.0000 </r>
       <r>    9.3205   -0.0000 </r>
       <r>    9.3205   -0.0000 </r>
       <r>   10.7674    0.0000 </r>
       <r>   10.7674    0.0000 </r>
       <r>   12.2456    0.0000 </r>
       <r>   13.6756    0.0000 </r>
      </set>
      <set comment="kpoint 35">
       <r>    0.3513    1.0000 </r>
       <r>    1.6306    1.0000 </r>
       <r>    1.6306    1.0000 </r>
       <r>    1.8598    1.0000 </r>
       <r>    8.3086   -0.0000 </r>
       <r>    9.5262    0.0000 </r>
       <r>    9.5262    0.0000 </r>
       <r>    9.7375    0.0000 </r>
       <r>    9.7788    0.0000 </r>
       <r>   11.0611    0.0000 </r>
       <r>   11.0611    0.0000 </r>
       <r>   11.2188    0.0000 </r>
      </set>
      <set comment="kpoint 36">
       <r>    0.7878    1.0000 </r>
       <r>    1.1117    1.0000 </r>
       <r>    1.1117    1.0000 </r>
       <r>    2.4759    1.0000 </r>
       <r>    8.7238   -0.0000 </r>
       <r>    9.0271   -0.0000 </r>
       <r>    9.0271   -0.0000 </r>
       <r>   10.2633    0.0000 </r>
       <r>   10.3375    0.0000 </r>
       <r>   10.5043    0.0000 </r>
       <r>   10.5043    0.0000 </r>
       <r>   11.8586    0.0000 </r>
      </set>
      <set comment="kpoint 37">
       <r>   -3.0607    1.0000 </r>
       <r>    4.0900    1.0000 </r>
       <r>    5.1537    1.0000 </r>
       <r>    5.1537    1.0000 </r>
       <r>    6.4985    1.0000 </r>
       <r>    6.4985    1.0000 </r>
       <r>    7.4887    1.0000 </r>
       <r>   11.9762    0.0000 </r>
       <r>   11.9762    0.0000 </r>
       <r>   12.6251    0.0000 </r>
       <r>   13.1081    0.0000 </r>
       <r>   13.1148    0.0000 </r>
      </set>
      <set comment="kpoint 38">
       <r>   -2.9857    1.0000 </r>
       <r>    4.1607    1.0000 </r>
       <r>    4.1813    1.0000 </r>
       <r>    5.2159    1.0000 </r>
       <r>    6.5764    1.0000 </r>
       <r>    7.5586    1.0000 </r>
       <r>    7.5995    1.0000 </r>
       <r>   11.0313    0.0000 </r>
       <r>   11.5812    0.0000 </r>
       <r>   12.0400    0.0000 </r>
       <r>   13.1794    0.0000 </r>
       <r>   13.4543    0.0000 </r>
      </set>
      <set comment="kpoint 39">
       <r>   -2.7608    1.0000 </r>
       <r>    2.8733    1.0000 </r>
       <r>    4.3726    1.0000 </r>
       <r>    5.4033    1.0000 </r>
       <r>    6.8068    1.0000 </r>
       <r>    7.7671    1.0000 </r>
       <r>    9.2922   -0.0000 </r>
       <r>    9.7804    0.0000 </r>
       <r>   10.3702    0.0000 </r>
       <r>   12.2324    0.0000 </r>
       <r>   12.5413    0.0000 </r>
       <r>   13.0517    0.0000 </r>
      </set>
      <set comment="kpoint 40">
       <r>   -2.3868    1.0000 </r>
       <r>    1.6575    1.0000 </r>
       <r>    4.7250    1.0000 </r>
       <r>    5.7176    1.0000 </r>
       <r>    7.1727    1.0000 </r>
       <r>    8.1075   -0.0037 </r>
       <r>    8.6376   -0.0000 </r>
       <r>    9.2682   -0.0000 </r>
       <r>   11.1394    0.0000 </r>
       <r>   11.4387    0.0000 </r>
       <r>   12.0126    0.0000 </r>
       <r>   12.5613    0.0000 </r>
      </set>
      <set comment="kpoint 41">
       <r>   -1.8648    1.0000 </r>
       <r>    0.5684    1.0000 </r>
       <r>    5.2167    1.0000 </r>
       <r>    6.1607    1.0000 </r>
       <r>    7.3764    1.0000 </r>
       <r>    7.9230    1.0291 </r>
       <r>    8.2856   -0.0000 </r>
       <r>    8.5633   -0.0000 </r>
       <r>   10.4265    0.0000 </r>
       <r>   11.0336    0.0000 </r>
       <r>   12.8484    0.0000 </r>
       <r>   13.2792    0.0000 </r>
      </set>
      <set comment="kpoint 42">
       <r>   -1.1967    1.0000 </r>
       <r>   -0.3846    1.0000 </r>
       <r>    5.8447    1.0000 </r>
       <r>    6.5864    1.0000 </r>
       <r>    6.7547    1.0000 </r>
       <r>    7.4485    1.0000 </r>
       <r>    8.4243   -0.0000 </r>
       <r>    8.8895   -0.0000 </r>
       <r>    9.7788    0.0000 </r>
       <r>   10.1967    0.0000 </r>
       <r>   13.5205    0.0000 </r>
       <r>   14.2249    0.0000 </r>
      </set>
      <set comment="kpoint 43">
       <r>   -2.9197    1.0000 </r>
       <r>    4.2232    1.0000 </r>
       <r>    4.3284    1.0000 </r>
       <r>    4.3284    1.0000 </r>
       <r>    7.5809    1.0000 </r>
       <r>    7.5809    1.0000 </r>
       <r>    7.6229    1.0000 </r>
       <r>   10.3513    0.0000 </r>
       <r>   11.1733    0.0000 </r>
       <r>   11.1733    0.0000 </r>
       <r>   13.7924    0.0000 </r>
       <r>   13.7924    0.0000 </r>
      </set>
      <set comment="kpoint 44">
       <r>   -2.7040    1.0000 </r>
       <r>    3.0201    1.0000 </r>
       <r>    4.4269    1.0000 </r>
       <r>    4.6143    1.0000 </r>
       <r>    7.7017    1.0000 </r>
       <r>    7.8255    1.0000 </r>
       <r>    9.1506   -0.0000 </r>
       <r>    9.2631   -0.0000 </r>
       <r>    9.9179    0.0000 </r>
       <r>   11.4540    0.0000 </r>
       <r>   13.1753    0.0000 </r>
       <r>   13.9692    0.0000 </r>
      </set>
      <set comment="kpoint 45">
       <r>   -2.3391    1.0000 </r>
       <r>    1.7985    1.0000 </r>
       <r>    4.7713    1.0000 </r>
       <r>    5.0364    1.0000 </r>
       <r>    7.9506    1.0139 </r>
       <r>    8.0257    0.0865 </r>
       <r>    8.1980   -0.0000 </r>
       <r>    8.7648   -0.0000 </r>
       <r>   11.1136    0.0000 </r>
       <r>   11.8727    0.0000 </r>
       <r>   12.1359    0.0000 </r>
       <r>   12.8817    0.0000 </r>
      </set>
      <set comment="kpoint 46">
       <r>   -1.8262    1.0000 </r>
       <r>    0.7024    1.0000 </r>
       <r>    5.2555    1.0000 </r>
       <r>    5.5889    1.0000 </r>
       <r>    7.0842    1.0000 </r>
       <r>    7.6678    1.0000 </r>
       <r>    8.4102   -0.0000 </r>
       <r>    8.6430   -0.0000 </r>
       <r>   11.1462    0.0000 </r>
       <r>   11.8184    0.0000 </r>
       <r>   12.4250    0.0000 </r>
       <r>   13.0893    0.0000 </r>
      </set>
      <set comment="kpoint 47">
       <r>   -1.1671    1.0000 </r>
       <r>   -0.2581    1.0000 </r>
       <r>    5.8763    1.0000 </r>
       <r>    6.2230    1.0000 </r>
       <r>    6.2539    1.0000 </r>
       <r>    6.8289    1.0000 </r>
       <r>    8.9149   -0.0000 </r>
       <r>    9.2078   -0.0000 </r>
       <r>   10.2839    0.0000 </r>
       <r>   10.9021    0.0000 </r>
       <r>   13.0140    0.0000 </r>
       <r>   13.1149    0.0000 </r>
      </set>
      <set comment="kpoint 48">
       <r>   -1.0782    1.0000 </r>
       <r>   -0.3639    1.0000 </r>
       <r>    5.5555    1.0000 </r>
       <r>    5.9371    1.0000 </r>
       <r>    6.6364    1.0000 </r>
       <r>    7.1529    1.0000 </r>
       <r>    9.2761   -0.0000 </r>
       <r>    9.5539    0.0000 </r>
       <r>    9.8509    0.0000 </r>
       <r>   10.4640    0.0000 </r>
       <r>   12.3326    0.0000 </r>
       <r>   13.9369    0.0000 </r>
      </set>
      <set comment="kpoint 49">
       <r>   -1.7547    1.0000 </r>
       <r>    0.5804    1.0000 </r>
       <r>    4.9994    1.0000 </r>
       <r>    5.3158    1.0000 </r>
       <r>    7.5146    1.0000 </r>
       <r>    8.0005    0.4302 </r>
       <r>    8.8809   -0.0000 </r>
       <r>    9.1083   -0.0000 </r>
       <r>   10.5135    0.0000 </r>
       <r>   11.0880    0.0000 </r>
       <r>   11.7717    0.0000 </r>
       <r>   13.3656    0.0000 </r>
      </set>
      <set comment="kpoint 50">
       <r>   -2.2851    1.0000 </r>
       <r>    1.6613    1.0000 </r>
       <r>    4.5833    1.0000 </r>
       <r>    4.8189    1.0000 </r>
       <r>    8.1424   -0.0001 </r>
       <r>    8.2870   -0.0000 </r>
       <r>    8.8241   -0.0000 </r>
       <r>    9.3433   -0.0000 </r>
       <r>   11.1222    0.0000 </r>
       <r>   11.4065    0.0000 </r>
       <r>   11.6343    0.0000 </r>
       <r>   12.0330    0.0000 </r>
      </set>
      <set comment="kpoint 51">
       <r>   -2.6679    1.0000 </r>
       <r>    2.8697    1.0000 </r>
       <r>    4.3083    1.0000 </r>
       <r>    4.4593    1.0000 </r>
       <r>    7.8399    1.0000 </r>
       <r>    8.0397   -0.0051 </r>
       <r>    9.4450    0.0000 </r>
       <r>    9.7949    0.0000 </r>
       <r>   10.5027    0.0000 </r>
       <r>   11.1789    0.0000 </r>
       <r>   12.3252    0.0000 </r>
       <r>   13.0626    0.0000 </r>
      </set>
      <set comment="kpoint 52">
       <r>   -2.9016    1.0000 </r>
       <r>    4.1743    1.0000 </r>
       <r>    4.1743    1.0000 </r>
       <r>    4.2395    1.0000 </r>
       <r>    7.6330    1.0000 </r>
       <r>    7.7563    1.0000 </r>
       <r>    7.7563    1.0000 </r>
       <r>   11.0303    0.0000 </r>
       <r>   11.0303    0.0000 </r>
       <r>   11.7637    0.0000 </r>
       <r>   12.7624    0.0000 </r>
       <r>   13.8054    0.0000 </r>
      </set>
      <set comment="kpoint 53">
       <r>   -2.4976    1.0000 </r>
       <r>    3.3093    1.0000 </r>
       <r>    3.3093    1.0000 </r>
       <r>    4.6222    1.0000 </r>
       <r>    7.8883    1.0046 </r>
       <r>    8.0723   -0.0269 </r>
       <r>    9.3622    0.0000 </r>
       <r>    9.3622    0.0000 </r>
       <r>   10.2023    0.0000 </r>
       <r>   10.2023    0.0000 </r>
       <r>   13.4310    0.0000 </r>
       <r>   13.4310    0.0000 </r>
      </set>
      <set comment="kpoint 54">
       <r>   -2.1422    1.0000 </r>
       <r>    2.0839    1.0000 </r>
       <r>    3.7394    1.0000 </r>
       <r>    4.9581    1.0000 </r>
       <r>    6.8205    1.0000 </r>
       <r>    8.3704   -0.0000 </r>
       <r>    8.9921   -0.0000 </r>
       <r>    9.6384    0.0000 </r>
       <r>   10.5974    0.0000 </r>
       <r>   11.2273    0.0000 </r>
       <r>   12.3980    0.0000 </r>
       <r>   13.5629    0.0000 </r>
      </set>
      <set comment="kpoint 55">
       <r>   -1.6390    1.0000 </r>
       <r>    0.9821    1.0000 </r>
       <r>    4.3075    1.0000 </r>
       <r>    5.4317    1.0000 </r>
       <r>    5.8445    1.0000 </r>
       <r>    7.9519    1.0096 </r>
       <r>    8.8410   -0.0000 </r>
       <r>    9.9970    0.0000 </r>
       <r>   11.1624    0.0000 </r>
       <r>   11.4102    0.0000 </r>
       <r>   12.6140    0.0000 </r>
       <r>   13.1901    0.0000 </r>
      </set>
      <set comment="kpoint 56">
       <r>   -0.9895    1.0000 </r>
       <r>    0.0150    1.0000 </r>
       <r>    4.9939    1.0000 </r>
       <r>    5.0063    1.0000 </r>
       <r>    6.0517    1.0000 </r>
       <r>    7.0399    1.0000 </r>
       <r>    9.4390    0.0000 </r>
       <r>   10.3127    0.0000 </r>
       <r>   10.7137    0.0000 </r>
       <r>   11.7942    0.0000 </r>
       <r>   11.8565    0.0000 </r>
       <r>   12.5658    0.0000 </r>
      </set>
      <set comment="kpoint 57">
       <r>   -0.8121    1.0000 </r>
       <r>   -0.1960    1.0000 </r>
       <r>    4.2866    1.0000 </r>
       <r>    5.7686    1.0000 </r>
       <r>    6.3312    1.0000 </r>
       <r>    6.8030    1.0000 </r>
       <r>    9.6858    0.0000 </r>
       <r>   10.1275    0.0000 </r>
       <r>   11.1063    0.0000 </r>
       <r>   11.2157    0.0000 </r>
       <r>   11.7750    0.0000 </r>
       <r>   12.6843    0.0000 </r>
      </set>
      <set comment="kpoint 58">
       <r>   -1.4961    1.0000 </r>
       <r>    0.7387    1.0000 </r>
       <r>    3.7188    1.0000 </r>
       <r>    5.5419    1.0000 </r>
       <r>    6.8664    1.0000 </r>
       <r>    7.6876    1.0000 </r>
       <r>    9.0748   -0.0000 </r>
       <r>   10.5503    0.0000 </r>
       <r>   10.5791    0.0000 </r>
       <r>   11.4768    0.0000 </r>
       <r>   11.9611    0.0000 </r>
       <r>   13.4260    0.0000 </r>
      </set>
      <set comment="kpoint 59">
       <r>   -2.0345    1.0000 </r>
       <r>    1.8101    1.0000 </r>
       <r>    3.2928    1.0000 </r>
       <r>    5.0510    1.0000 </r>
       <r>    7.8181    1.0000 </r>
       <r>    8.6901   -0.0000 </r>
       <r>    8.7068   -0.0000 </r>
       <r>   10.1161    0.0000 </r>
       <r>   10.2508    0.0000 </r>
       <r>   11.6791    0.0000 </r>
       <r>   12.2148    0.0000 </r>
       <r>   12.7633    0.0000 </r>
      </set>
      <set comment="kpoint 60">
       <r>   -2.4255    1.0000 </r>
       <r>    3.0095    1.0000 </r>
       <r>    3.0095    1.0000 </r>
       <r>    4.6862    1.0000 </r>
       <r>    8.0101    0.2782 </r>
       <r>    9.3595   -0.0000 </r>
       <r>    9.5695    0.0000 </r>
       <r>    9.5695    0.0000 </r>
       <r>   10.1078    0.0000 </r>
       <r>   10.1078    0.0000 </r>
       <r>   13.1754    0.0000 </r>
       <r>   13.2123    0.0000 </r>
      </set>
      <set comment="kpoint 61">
       <r>   -1.7966    1.0000 </r>
       <r>    2.5123    1.0000 </r>
       <r>    2.5123    1.0000 </r>
       <r>    5.2830    1.0000 </r>
       <r>    5.7023    1.0000 </r>
       <r>    8.7009   -0.0000 </r>
       <r>    9.4192    0.0000 </r>
       <r>    9.4192    0.0000 </r>
       <r>   11.4475    0.0000 </r>
       <r>   11.4475    0.0000 </r>
       <r>   12.4760    0.0000 </r>
       <r>   12.7978    0.0000 </r>
      </set>
      <set comment="kpoint 62">
       <r>   -1.3035    1.0000 </r>
       <r>    1.4064    1.0000 </r>
       <r>    3.0818    1.0000 </r>
       <r>    4.7025    1.0000 </r>
       <r>    5.7559    1.0000 </r>
       <r>    8.3589   -0.0000 </r>
       <r>    9.1684   -0.0000 </r>
       <r>    9.9728    0.0000 </r>
       <r>   11.5137    0.0000 </r>
       <r>   11.6475    0.0000 </r>
       <r>   11.9606    0.0000 </r>
       <r>   13.2596    0.0000 </r>
      </set>
      <set comment="kpoint 63">
       <r>   -0.6644    1.0000 </r>
       <r>    0.4340    1.0000 </r>
       <r>    3.7892    1.0000 </r>
       <r>    3.8431    1.0000 </r>
       <r>    6.3619    1.0000 </r>
       <r>    7.4316    1.0000 </r>
       <r>    9.7683    0.0000 </r>
       <r>   10.6626    0.0000 </r>
       <r>   10.6824    0.0000 </r>
       <r>   10.8575    0.0000 </r>
       <r>   12.3405    0.0000 </r>
       <r>   13.9911    0.0000 </r>
      </set>
      <set comment="kpoint 64">
       <r>   -0.3993    1.0000 </r>
       <r>    0.1187    1.0000 </r>
       <r>    3.1217    1.0000 </r>
       <r>    4.6263    1.0000 </r>
       <r>    6.6465    1.0000 </r>
       <r>    7.1062    1.0000 </r>
       <r>    9.9851    0.0000 </r>
       <r>   10.0846    0.0000 </r>
       <r>   10.4902    0.0000 </r>
       <r>   11.4876    0.0000 </r>
       <r>   12.9381    0.0000 </r>
       <r>   13.3025    0.0000 </r>
      </set>
      <set comment="kpoint 65">
       <r>   -1.0900    1.0000 </r>
       <r>    1.0428    1.0000 </r>
       <r>    2.5412    1.0000 </r>
       <r>    5.5208    1.0000 </r>
       <r>    6.0713    1.0000 </r>
       <r>    7.9857    0.6772 </r>
       <r>    9.4230    0.0000 </r>
       <r>    9.4419    0.0000 </r>
       <r>   11.2978    0.0000 </r>
       <r>   12.4452    0.0000 </r>
       <r>   12.7014    0.0000 </r>
       <r>   12.9204    0.0000 </r>
      </set>
      <set comment="kpoint 66">
       <r>   -1.6357    1.0000 </r>
       <r>    2.1036    1.0000 </r>
       <r>    2.1036    1.0000 </r>
       <r>    5.4101    1.0000 </r>
       <r>    6.7517    1.0000 </r>
       <r>    8.9502   -0.0000 </r>
       <r>    8.9949   -0.0000 </r>
       <r>    8.9949   -0.0000 </r>
       <r>   11.8778    0.0000 </r>
       <r>   11.8778    0.0000 </r>
       <r>   12.7242    0.0000 </r>
       <r>   12.7242    0.0000 </r>
      </set>
      <set comment="kpoint 67">
       <r>   -0.8209    1.0000 </r>
       <r>    1.9737    1.0000 </r>
       <r>    1.9737    1.0000 </r>
       <r>    3.6939    1.0000 </r>
       <r>    6.2141    1.0000 </r>
       <r>    8.9044   -0.0000 </r>
       <r>    8.9044   -0.0000 </r>
       <r>    9.6301    0.0000 </r>
       <r>   10.5394    0.0000 </r>
       <r>   12.3018    0.0000 </r>
       <r>   12.3018    0.0000 </r>
       <r>   13.7688    0.0000 </r>
      </set>
      <set comment="kpoint 68">
       <r>   -0.1926    1.0000 </r>
       <r>    0.9973    1.0000 </r>
       <r>    2.6815    1.0000 </r>
       <r>    2.8198    1.0000 </r>
       <r>    6.8119    1.0000 </r>
       <r>    7.9682    0.9033 </r>
       <r>    9.5881    0.0000 </r>
       <r>    9.6971    0.0000 </r>
       <r>   10.2248    0.0000 </r>
       <r>   11.3985    0.0000 </r>
       <r>   12.9718    0.0000 </r>
       <r>   13.0609    0.0000 </r>
      </set>
      <set comment="kpoint 69">
       <r>    0.1589    1.0000 </r>
       <r>    0.5793    1.0000 </r>
       <r>    2.0849    1.0000 </r>
       <r>    3.5259    1.0000 </r>
       <r>    7.1693    1.0000 </r>
       <r>    7.5477    1.0000 </r>
       <r>    8.9899   -0.0000 </r>
       <r>   10.4084    0.0000 </r>
       <r>   10.6131    0.0000 </r>
       <r>   10.9471    0.0000 </r>
       <r>   12.3635    0.0000 </r>
       <r>   13.7615    0.0000 </r>
      </set>
      <set comment="kpoint 70">
       <r>   -0.5377    1.0000 </r>
       <r>    1.4920    1.0000 </r>
       <r>    1.4920    1.0000 </r>
       <r>    4.4974    1.0000 </r>
       <r>    6.5148    1.0000 </r>
       <r>    8.4193   -0.0000 </r>
       <r>    8.4193   -0.0000 </r>
       <r>    9.9582    0.0000 </r>
       <r>   11.3625    0.0000 </r>
       <r>   11.7850    0.0000 </r>
       <r>   11.7850    0.0000 </r>
       <r>   14.6636    0.0000 </r>
      </set>
      <set comment="kpoint 71">
       <r>    0.4243    1.0000 </r>
       <r>    1.7028    1.0000 </r>
       <r>    1.7028    1.0000 </r>
       <r>    1.9321    1.0000 </r>
       <r>    7.4007    1.0000 </r>
       <r>    8.6448   -0.0000 </r>
       <r>    8.6448   -0.0000 </r>
       <r>    8.8444   -0.0000 </r>
       <r>   10.8121    0.0000 </r>
       <r>   12.0647    0.0000 </r>
       <r>   12.0647    0.0000 </r>
       <r>   12.2339    0.0000 </r>
      </set>
      <set comment="kpoint 72">
       <r>    0.8605    1.0000 </r>
       <r>    1.1844    1.0000 </r>
       <r>    1.1844    1.0000 </r>
       <r>    2.5474    1.0000 </r>
       <r>    7.8374    1.0000 </r>
       <r>    8.1274   -0.0007 </r>
       <r>    8.1274   -0.0007 </r>
       <r>    9.4591    0.0000 </r>
       <r>   11.2749    0.0000 </r>
       <r>   11.5276    0.0000 </r>
       <r>   11.5276    0.0000 </r>
       <r>   12.8557    0.0000 </r>
      </set>
      <set comment="kpoint 73">
       <r>   -2.8365    1.0000 </r>
       <r>    2.7827    1.0000 </r>
       <r>    5.3581    1.0000 </r>
       <r>    5.3581    1.0000 </r>
       <r>    6.7141    1.0000 </r>
       <r>    6.7141    1.0000 </r>
       <r>    9.1834   -0.0000 </r>
       <r>   10.6698    0.0000 </r>
       <r>   10.6698    0.0000 </r>
       <r>   12.1032    0.0000 </r>
       <r>   12.1032    0.0000 </r>
       <r>   12.8174    0.0000 </r>
      </set>
      <set comment="kpoint 74">
       <r>   -2.7616    1.0000 </r>
       <r>    2.8545    1.0000 </r>
       <r>    4.3921    1.0000 </r>
       <r>    5.4204    1.0000 </r>
       <r>    6.7892    1.0000 </r>
       <r>    7.8065    1.0000 </r>
       <r>    9.2508   -0.0000 </r>
       <r>    9.7852    0.0000 </r>
       <r>   10.7355    0.0000 </r>
       <r>   11.7860    0.0000 </r>
       <r>   12.1774    0.0000 </r>
       <r>   13.0659    0.0000 </r>
      </set>
      <set comment="kpoint 75">
       <r>   -2.5371    1.0000 </r>
       <r>    3.0697    1.0000 </r>
       <r>    3.0876    1.0000 </r>
       <r>    5.6076    1.0000 </r>
       <r>    7.0024    1.0000 </r>
       <r>    8.5620   -0.0000 </r>
       <r>    9.4495    0.0000 </r>
       <r>    9.4829    0.0000 </r>
       <r>   10.5771    0.0000 </r>
       <r>   10.9379    0.0000 </r>
       <r>   12.4007    0.0000 </r>
       <r>   12.7515    0.0000 </r>
      </set>
      <set comment="kpoint 76">
       <r>   -2.1637    1.0000 </r>
       <r>    1.8741    1.0000 </r>
       <r>    3.4276    1.0000 </r>
       <r>    5.9207    1.0000 </r>
       <r>    7.1043    1.0000 </r>
       <r>    7.6837    1.0000 </r>
       <r>    9.4708    0.0000 </r>
       <r>    9.7656    0.0000 </r>
       <r>   11.0927    0.0000 </r>
       <r>   11.4877    0.0000 </r>
       <r>   11.6750    0.0000 </r>
       <r>   12.7812    0.0000 </r>
      </set>
      <set comment="kpoint 77">
       <r>   -1.6426    1.0000 </r>
       <r>    0.7868    1.0000 </r>
       <r>    3.9269    1.0000 </r>
       <r>    6.2070    1.0000 </r>
       <r>    6.4004    1.0000 </r>
       <r>    8.0350    0.0175 </r>
       <r>    8.4985   -0.0000 </r>
       <r>   10.0119    0.0000 </r>
       <r>   10.8559    0.0000 </r>
       <r>   11.6554    0.0000 </r>
       <r>   12.6319    0.0000 </r>
       <r>   13.0851    0.0000 </r>
      </set>
      <set comment="kpoint 78">
       <r>   -0.9755    1.0000 </r>
       <r>   -0.1647    1.0000 </r>
       <r>    4.5654    1.0000 </r>
       <r>    5.3383    1.0000 </r>
       <r>    6.9486    1.0000 </r>
       <r>    7.6564    1.0000 </r>
       <r>    8.6877   -0.0000 </r>
       <r>    9.4543    0.0000 </r>
       <r>   11.0858    0.0000 </r>
       <r>   11.7831    0.0000 </r>
       <r>   12.2408    0.0000 </r>
       <r>   12.9480    0.0000 </r>
      </set>
      <set comment="kpoint 79">
       <r>   -2.6958    1.0000 </r>
       <r>    2.9179    1.0000 </r>
       <r>    4.5382    1.0000 </r>
       <r>    4.5382    1.0000 </r>
       <r>    7.7894    1.0000 </r>
       <r>    7.7894    1.0000 </r>
       <r>    9.3145   -0.0000 </r>
       <r>    9.9220    0.0000 </r>
       <r>    9.9220    0.0000 </r>
       <r>   10.5580    0.0000 </r>
       <r>   13.0543    0.0000 </r>
       <r>   13.0543    0.0000 </r>
      </set>
      <set comment="kpoint 80">
       <r>   -2.4804    1.0000 </r>
       <r>    3.1246    1.0000 </r>
       <r>    3.2339    1.0000 </r>
       <r>    4.8219    1.0000 </r>
       <r>    7.8961    1.0079 </r>
       <r>    8.6949   -0.0000 </r>
       <r>    9.3381   -0.0000 </r>
       <r>    9.4613    0.0000 </r>
       <r>    9.5328    0.0000 </r>
       <r>   10.2026    0.0000 </r>
       <r>   13.1793    0.0000 </r>
       <r>   14.1753    0.0000 </r>
      </set>
      <set comment="kpoint 81">
[...]
       <r>    0.6686    1.0000 </r>
       <r>    1.4666    1.0000 </r>
       <r>    2.7771    1.0000 </r>
       <r>    3.5649    1.0000 </r>
       <r>    4.2595    1.0000 </r>
       <r>    5.0401    1.0000 </r>
       <r>    7.3498    1.0000 </r>
       <r>    8.1190   -0.0014 </r>
       <r>   14.3797    0.0000 </r>
       <r>   15.0827    0.0000 </r>
       <r>   15.1659    0.0000 </r>
       <r>   15.7496    0.0000 </r>
      </set>
      <set comment="kpoint 210">
       <r>    0.1299    1.0000 </r>
       <r>    0.9313    1.0000 </r>
       <r>    3.8249    1.0000 </r>
       <r>    3.8249    1.0000 </r>
       <r>    4.6082    1.0000 </r>
       <r>    4.6082    1.0000 </r>
       <r>    8.4540   -0.0000 </r>
       <r>    9.2204   -0.0000 </r>
       <r>   13.7872    0.0000 </r>
       <r>   13.7872    0.0000 </r>
       <r>   14.5284    0.0000 </r>
       <r>   14.5284    0.0000 </r>
      </set>
      <set comment="kpoint 211">
       <r>    0.9354    1.0000 </r>
       <r>    1.7332    1.0000 </r>
       <r>    3.6514    1.0000 </r>
       <r>    3.6514    1.0000 </r>
       <r>    4.5548    1.0000 </r>
       <r>    4.5548    1.0000 </r>
       <r>    5.4024    1.0000 </r>
       <r>    6.1792    1.0000 </r>
       <r>   15.2581    0.0000 </r>
       <r>   15.2581    0.0000 </r>
       <r>   16.1051    0.0000 </r>
       <r>   16.1051    0.0000 </r>
      </set>
      <set comment="kpoint 212">
       <r>    1.5564    1.0000 </r>
       <r>    2.3510    1.0000 </r>
       <r>    2.7229    1.0000 </r>
       <r>    3.4805    1.0000 </r>
       <r>    4.4663    1.0000 </r>
       <r>    4.5366    1.0000 </r>
       <r>    5.2164    1.0000 </r>
       <r>    5.3171    1.0000 </r>
       <r>   15.7702    0.0000 </r>
       <r>   16.4091    0.0000 </r>
       <r>   17.3331    0.0000 </r>
       <r>   17.4666    0.0000 </r>
      </set>
      <set comment="kpoint 213">
       <r>    1.9002    1.0000 </r>
       <r>    2.3195    1.0000 </r>
       <r>    2.6868    1.0000 </r>
       <r>    3.1102    1.0000 </r>
       <r>    3.8090    1.0000 </r>
       <r>    4.5926    1.0000 </r>
       <r>    5.2760    1.0000 </r>
       <r>    6.0478    1.0000 </r>
       <r>   16.2751    0.0000 </r>
       <r>   16.9583    0.0000 </r>
       <r>   16.9794    0.0000 </r>
       <r>   17.5537    0.0000 </r>
      </set>
      <set comment="kpoint 214">
       <r>    1.2136    1.0000 </r>
       <r>    2.0075    1.0000 </r>
       <r>    3.2218    1.0000 </r>
       <r>    3.2218    1.0000 </r>
       <r>    4.0082    1.0000 </r>
       <r>    4.0082    1.0000 </r>
       <r>    6.2467    1.0000 </r>
       <r>    7.0186    1.0000 </r>
       <r>   16.3107    0.0000 </r>
       <r>   16.3107    0.0000 </r>
       <r>   16.3814    0.0000 </r>
       <r>   16.8916    0.0000 </r>
      </set>
      <set comment="kpoint 215">
       <r>    2.1664    1.0000 </r>
       <r>    2.9580    1.0000 </r>
       <r>    3.3873    1.0000 </r>
       <r>    3.3873    1.0000 </r>
       <r>    3.6581    1.0000 </r>
       <r>    4.2842    1.0000 </r>
       <r>    4.2842    1.0000 </r>
       <r>    4.4426    1.0000 </r>
       <r>   17.6005    0.0000 </r>
       <r>   17.6006    0.0000 </r>
       <r>   18.0741    0.0000 </r>
       <r>   18.1540    0.0000 </r>
      </set>
      <set comment="kpoint 216">
       <r>    2.5883    1.0000 </r>
       <r>    2.9181    1.0000 </r>
       <r>    2.9181    1.0000 </r>
       <r>    3.3478    1.0000 </r>
       <r>    3.7061    1.0000 </r>
       <r>    3.7061    1.0000 </r>
       <r>    4.3316    1.0000 </r>
       <r>    5.0836    1.0000 </r>
       <r>   17.6285    0.0000 </r>
       <r>   18.3382    0.0000 </r>
       <r>   18.3463    0.0000 </r>
       <r>   18.4220    0.0000 </r>
      </set>
     </set>
    </set>
   </array>
  </eigenvalues>
  <separator name="orbital magnetization" >
   <v name="MAGDIPOLOUT">      0.00000000      0.00000000      0.00000000</v>
  </separator>
  <dos>
   <i name="efermi">      7.99640133 </i>
   <total>
    <array>
     <dimension dim="1">gridpoints</dimension>
     <dimension dim="2">spin</dimension>
     <field>energy</field>
     <field>total</field>
     <field>integrated</field>
     <set>
      <set comment="spin 1">
       <r>    -4.2134     0.0000     0.0000 </r>
       <r>    -4.1343     0.0000     0.0000 </r>
       <r>    -4.0553     0.0000     0.0000 </r>
       <r>    -3.9763     0.0000     0.0000 </r>
       <r>    -3.8972     0.0000     0.0000 </r>
       <r>    -3.8182     0.0000     0.0000 </r>
       <r>    -3.7391     0.0000     0.0000 </r>
       <r>    -3.6601     0.0000     0.0000 </r>
       <r>    -3.5810    -0.0000    -0.0000 </r>
       <r>    -3.5020    -0.0000    -0.0000 </r>
       <r>    -3.4229    -0.0000    -0.0000 </r>
       <r>    -3.3439    -0.0000    -0.0000 </r>
       <r>    -3.2649    -0.0000    -0.0000 </r>
       <r>    -3.1858    -0.0006    -0.0000 </r>
       <r>    -3.1068     0.0157     0.0012 </r>
       <r>    -3.0277     0.1122     0.0101 </r>
       <r>    -2.9487     0.2319     0.0284 </r>
       <r>    -2.8696     0.1549     0.0406 </r>
       <r>    -2.7906     0.1585     0.0532 </r>
       <r>    -2.7116     0.4938     0.0922 </r>
       <r>    -2.6325     0.3734     0.1217 </r>
       <r>    -2.5535     0.0564     0.1262 </r>
       <r>    -2.4744     0.3644     0.1550 </r>
       <r>    -2.3954     0.5495     0.1984 </r>
       <r>    -2.3163     0.5043     0.2383 </r>
       <r>    -2.2373     0.3240     0.2639 </r>
       <r>    -2.1582     0.3541     0.2919 </r>
       <r>    -2.0792     0.7022     0.3474 </r>
       <r>    -2.0002     0.3723     0.3768 </r>
       <r>    -1.9211     0.1827     0.3913 </r>
       <r>    -1.8421     0.6338     0.4414 </r>
       <r>    -1.7630     0.8509     0.5086 </r>
       <r>    -1.6840     0.4417     0.5435 </r>
       <r>    -1.6049     0.6871     0.5978 </r>
       <r>    -1.5259     0.7441     0.6567 </r>
       <r>    -1.4468     0.3109     0.6812 </r>
       <r>    -1.3678     0.4004     0.7129 </r>
       <r>    -1.2888     0.3578     0.7412 </r>
       <r>    -1.2097     0.9624     0.8172 </r>
       <r>    -1.1307     0.9373     0.8913 </r>
       <r>    -1.0516     0.7039     0.9470 </r>
       <r>    -0.9726     0.6312     0.9969 </r>
       <r>    -0.8935     0.8306     1.0625 </r>
       <r>    -0.8145     0.6114     1.1108 </r>
       <r>    -0.7354     0.4969     1.1501 </r>
       <r>    -0.6564     0.6212     1.1992 </r>
       <r>    -0.5774     0.8217     1.2642 </r>
       <r>    -0.4983     0.8099     1.3282 </r>
       <r>    -0.4193     0.6947     1.3831 </r>
       <r>    -0.3402     1.0441     1.4656 </r>
       <r>    -0.2612     0.5030     1.5054 </r>
       <r>    -0.1821     0.9294     1.5789 </r>
       <r>    -0.1031     0.8529     1.6463 </r>
       <r>    -0.0240     1.0249     1.7273 </r>
       <r>     0.0550     1.0354     1.8091 </r>
       <r>     0.1340     0.6476     1.8603 </r>
       <r>     0.2131     0.8160     1.9248 </r>
       <r>     0.2921     0.8150     1.9892 </r>
       <r>     0.3712     0.6586     2.0413 </r>
       <r>     0.4502     0.8649     2.1097 </r>
       <r>     0.5293     0.5187     2.1506 </r>
       <r>     0.6083     1.1653     2.2428 </r>
       <r>     0.6874     0.9800     2.3202 </r>
       <r>     0.7664     1.4611     2.4357 </r>
       <r>     0.8454     1.1209     2.5243 </r>
       <r>     0.9245     0.8831     2.5941 </r>
       <r>     1.0035     1.0101     2.6740 </r>
       <r>     1.0826     0.6906     2.7285 </r>
       <r>     1.1616     0.8657     2.7970 </r>
       <r>     1.2407     1.1860     2.8907 </r>
       <r>     1.3197     0.6930     2.9455 </r>
       <r>     1.3987     1.0262     3.0266 </r>
       <r>     1.4778     0.7993     3.0898 </r>
       <r>     1.5568     0.9824     3.1674 </r>
       <r>     1.6359     1.0832     3.2531 </r>
       <r>     1.7149     1.5302     3.3740 </r>
       <r>     1.7940     1.1519     3.4651 </r>
       <r>     1.8730     1.0022     3.5443 </r>
       <r>     1.9521     1.2142     3.6403 </r>
       <r>     2.0311     0.9447     3.7149 </r>
       <r>     2.1101     1.0622     3.7989 </r>
       <r>     2.1892     1.1092     3.8866 </r>
       <r>     2.2682     1.0089     3.9663 </r>
       <r>     2.3473     1.8175     4.1100 </r>
       <r>     2.4263     0.8375     4.1762 </r>
       <r>     2.5054     0.9214     4.2490 </r>
       <r>     2.5844     1.0367     4.3309 </r>
       <r>     2.6635     0.6187     4.3799 </r>
       <r>     2.7425     1.5318     4.5009 </r>
       <r>     2.8215     1.3200     4.6053 </r>
       <r>     2.9006     1.0869     4.6912 </r>
       <r>     2.9796     1.0489     4.7741 </r>
       <r>     3.0587     0.9622     4.8502 </r>
       <r>     3.1377     2.3051     5.0324 </r>
       <r>     3.2168     1.0685     5.1168 </r>
       <r>     3.2958     1.4442     5.2310 </r>
       <r>     3.3749     0.9360     5.3050 </r>
       <r>     3.4539     1.2082     5.4005 </r>
       <r>     3.5329     1.5663     5.5243 </r>
       <r>     3.6120     1.4202     5.6365 </r>
       <r>     3.6910     1.0403     5.7188 </r>
       <r>     3.7701     1.2972     5.8213 </r>
       <r>     3.8491     0.8693     5.8900 </r>
       <r>     3.9282     1.2555     5.9892 </r>
       <r>     4.0072     1.0863     6.0751 </r>
       <r>     4.0863     1.2168     6.1713 </r>
       <r>     4.1653     1.4121     6.2829 </r>
       <r>     4.2443     1.4040     6.3939 </r>
       <r>     4.3234     1.9251     6.5461 </r>
       <r>     4.4024     1.4873     6.6636 </r>
       <r>     4.4815     0.9793     6.7410 </r>
       <r>     4.5605     1.7824     6.8819 </r>
       <r>     4.6396     1.7167     7.0176 </r>
       <r>     4.7186     1.1468     7.1083 </r>
       <r>     4.7977     1.5451     7.2304 </r>
       <r>     4.8767     1.0839     7.3161 </r>
       <r>     4.9557     1.5550     7.4390 </r>
       <r>     5.0348     1.1347     7.5287 </r>
       <r>     5.1138     1.5264     7.6493 </r>
       <r>     5.1929     1.3787     7.7583 </r>
       <r>     5.2719     1.8446     7.9041 </r>
       <r>     5.3510     1.3562     8.0113 </r>
       <r>     5.4300     1.7169     8.1470 </r>
       <r>     5.5090     1.2991     8.2497 </r>
       <r>     5.5881     2.4797     8.4457 </r>
       <r>     5.6671     1.2855     8.5473 </r>
       <r>     5.7462     0.9814     8.6249 </r>
       <r>     5.8252     1.2927     8.7271 </r>
       <r>     5.9043     1.2463     8.8256 </r>
       <r>     5.9833     1.4394     8.9394 </r>
       <r>     6.0624     1.1866     9.0332 </r>
       <r>     6.1414     1.2070     9.1286 </r>
       <r>     6.2204     1.8635     9.2759 </r>
       <r>     6.2995     2.0769     9.4400 </r>
       <r>     6.3785     1.0966     9.5267 </r>
       <r>     6.4576     1.2663     9.6268 </r>
       <r>     6.5366     1.4199     9.7390 </r>
       <r>     6.6157     1.3844     9.8485 </r>
       <r>     6.6947     1.2046     9.9437 </r>
       <r>     6.7738     2.4355    10.1362 </r>
       <r>     6.8528     1.6450    10.2662 </r>
       <r>     6.9318     0.9653    10.3425 </r>
       <r>     7.0109     1.1616    10.4344 </r>
       <r>     7.0899     1.5431    10.5563 </r>
       <r>     7.1690     2.0450    10.7180 </r>
       <r>     7.2480     1.1025    10.8051 </r>
       <r>     7.3271     1.2156    10.9012 </r>
       <r>     7.4061     1.4405    11.0151 </r>
       <r>     7.4852     1.6092    11.1423 </r>
       <r>     7.5642     1.6538    11.2730 </r>
       <r>     7.6432     1.6255    11.4015 </r>
       <r>     7.7223     1.9383    11.5547 </r>
       <r>     7.8013     1.7603    11.6938 </r>
       <r>     7.8804     1.3465    11.8003 </r>
       <r>     7.9594     1.5039    11.9191 </r>
       <r>     8.0385     2.1178    12.0865 </r>
       <r>     8.1175     1.6256    12.2150 </r>
       <r>     8.1966     2.1603    12.3858 </r>
       <r>     8.2756     1.0904    12.4720 </r>
       <r>     8.3546     1.6799    12.6048 </r>
       <r>     8.4337     1.8771    12.7531 </r>
       <r>     8.5127     1.1400    12.8432 </r>
       <r>     8.5918     1.2974    12.9458 </r>
       <r>     8.6708     1.5839    13.0710 </r>
       <r>     8.7499     2.2857    13.2517 </r>
       <r>     8.8289     1.4596    13.3670 </r>
       <r>     8.9080     1.7259    13.5035 </r>
       <r>     8.9870     1.4034    13.6144 </r>
       <r>     9.0660     1.5144    13.7341 </r>
       <r>     9.1451     1.4784    13.8510 </r>
       <r>     9.2241     1.6737    13.9833 </r>
       <r>     9.3032     1.7536    14.1219 </r>
       <r>     9.3822     1.8877    14.2711 </r>
       <r>     9.4613     2.4438    14.4643 </r>
       <r>     9.5403     2.1885    14.6372 </r>
       <r>     9.6193     1.5645    14.7609 </r>
       <r>     9.6984     1.5752    14.8854 </r>
       <r>     9.7774     1.5337    15.0066 </r>
       <r>     9.8565     2.0312    15.1672 </r>
       <r>     9.9355     1.3507    15.2740 </r>
       <r>    10.0146     1.5440    15.3960 </r>
       <r>    10.0936     2.0563    15.5586 </r>
       <r>    10.1727     1.5952    15.6847 </r>
       <r>    10.2517     2.6038    15.8905 </r>
       <r>    10.3307     2.0082    16.0492 </r>
       <r>    10.4098     1.4173    16.1612 </r>
       <r>    10.4888     1.6342    16.2904 </r>
       <r>    10.5679     2.1000    16.4564 </r>
       <r>    10.6469     1.7816    16.5972 </r>
       <r>    10.7260     1.5814    16.7222 </r>
       <r>    10.8050     1.1242    16.8111 </r>
       <r>    10.8841     1.7184    16.9469 </r>
       <r>    10.9631     1.4465    17.0612 </r>
       <r>    11.0421     1.2392    17.1592 </r>
       <r>    11.1212     2.9906    17.3956 </r>
       <r>    11.2002     2.4664    17.5905 </r>
       <r>    11.2793     1.8241    17.7347 </r>
       <r>    11.3583     1.7293    17.8714 </r>
       <r>    11.4374     2.6758    18.0829 </r>
       <r>    11.5164     2.2740    18.2627 </r>
       <r>    11.5955     1.8017    18.4051 </r>
       <r>    11.6745     1.9242    18.5572 </r>
       <r>    11.7535     1.5632    18.6807 </r>
       <r>    11.8326     2.1368    18.8496 </r>
       <r>    11.9116     1.7879    18.9910 </r>
       <r>    11.9907     1.7475    19.1291 </r>
       <r>    12.0697     2.1300    19.2975 </r>
       <r>    12.1488     1.9699    19.4532 </r>
       <r>    12.2278     1.4983    19.5716 </r>
       <r>    12.3069     2.0986    19.7375 </r>
       <r>    12.3859     2.8873    19.9657 </r>
       <r>    12.4649     1.8760    20.1140 </r>
       <r>    12.5440     1.4261    20.2267 </r>
       <r>    12.6230     1.6720    20.3589 </r>
       <r>    12.7021     2.8243    20.5821 </r>
       <r>    12.7811     1.7034    20.7168 </r>
       <r>    12.8602     2.1492    20.8867 </r>
       <r>    12.9392     2.0956    21.0523 </r>
       <r>    13.0183     1.7369    21.1896 </r>
       <r>    13.0973     2.1844    21.3623 </r>
       <r>    13.1763     2.0588    21.5250 </r>
       <r>    13.2554     1.9107    21.6760 </r>
       <r>    13.3344     1.1890    21.7700 </r>
       <r>    13.4135     2.0037    21.9284 </r>
       <r>    13.4925     1.6959    22.0624 </r>
       <r>    13.5716     1.1373    22.1523 </r>
       <r>    13.6506     1.2455    22.2508 </r>
       <r>    13.7297     0.9599    22.3267 </r>
       <r>    13.8087     1.2420    22.4248 </r>
       <r>    13.8877     0.6423    22.4756 </r>
       <r>    13.9668     1.4698    22.5918 </r>
       <r>    14.0458     0.9218    22.6647 </r>
       <r>    14.1249     1.2431    22.7629 </r>
       <r>    14.2039     0.6602    22.8151 </r>
       <r>    14.2830     0.6529    22.8667 </r>
       <r>    14.3620     1.0011    22.9458 </r>
       <r>    14.4410     0.8064    23.0096 </r>
       <r>    14.5201     0.3918    23.0405 </r>
       <r>    14.5991     0.6735    23.0938 </r>
       <r>    14.6782     0.5681    23.1387 </r>
       <r>    14.7572     0.4880    23.1773 </r>
       <r>    14.8363     0.4358    23.2117 </r>
       <r>    14.9153     0.6511    23.2632 </r>
       <r>    14.9944     0.7392    23.3216 </r>
       <r>    15.0734     0.5719    23.3668 </r>
       <r>    15.1524     0.6407    23.4174 </r>
       <r>    15.2315     0.5190    23.4585 </r>
       <r>    15.3105     0.4060    23.4906 </r>
       <r>    15.3896     0.1602    23.5032 </r>
       <r>    15.4686     0.3704    23.5325 </r>
       <r>    15.5477     0.0791    23.5387 </r>
       <r>    15.6267     0.3924    23.5698 </r>
       <r>    15.7058     0.3776    23.5996 </r>
       <r>    15.7848     0.6386    23.6501 </r>
       <r>    15.8638     0.1999    23.6659 </r>
       <r>    15.9429     0.3092    23.6903 </r>
       <r>    16.0219     0.1133    23.6993 </r>
       <r>    16.1010     0.1878    23.7141 </r>
       <r>    16.1800     0.3343    23.7405 </r>
       <r>    16.2591     0.1256    23.7505 </r>
       <r>    16.3381     0.2516    23.7704 </r>
       <r>    16.4172     0.1858    23.7851 </r>
       <r>    16.4962     0.0599    23.7898 </r>
       <r>    16.5752     0.2392    23.8087 </r>
       <r>    16.6543     0.3682    23.8378 </r>
       <r>    16.7333     0.1669    23.8510 </r>
       <r>    16.8124     0.1366    23.8618 </r>
       <r>    16.8914     0.0300    23.8642 </r>
       <r>    16.9705     0.2039    23.8803 </r>
       <r>    17.0495     0.2253    23.8981 </r>
       <r>    17.1286     0.1529    23.9102 </r>
       <r>    17.2076     0.0593    23.9148 </r>
       <r>    17.2866     0.0108    23.9157 </r>
       <r>    17.3657     0.1440    23.9271 </r>
       <r>    17.4447     0.0351    23.9299 </r>
       <r>    17.5238     0.1400    23.9409 </r>
       <r>    17.6028     0.2338    23.9594 </r>
       <r>    17.6819     0.1392    23.9704 </r>
       <r>    17.7609    -0.0057    23.9700 </r>
       <r>    17.8400    -0.0000    23.9699 </r>
       <r>    17.9190    -0.0000    23.9699 </r>
       <r>    17.9980    -0.0020    23.9698 </r>
       <r>    18.0771     0.0419    23.9731 </r>
       <r>    18.1561     0.0785    23.9793 </r>
       <r>    18.2352     0.0346    23.9820 </r>
       <r>    18.3142     0.0143    23.9832 </r>
       <r>    18.3933     0.1477    23.9948 </r>
       <r>    18.4723     0.0673    24.0002 </r>
       <r>    18.5513    -0.0020    24.0000 </r>
       <r>    18.6304    -0.0001    24.0000 </r>
       <r>    18.7094    -0.0000    24.0000 </r>
       <r>    18.7885    -0.0000    24.0000 </r>
       <r>    18.8675     0.0000    24.0000 </r>
       <r>    18.9466     0.0000    24.0000 </r>
       <r>    19.0256     0.0000    24.0000 </r>
       <r>    19.1047     0.0000    24.0000 </r>
       <r>    19.1837     0.0000    24.0000 </r>
       <r>    19.2627     0.0000    24.0000 </r>
       <r>    19.3418     0.0000    24.0000 </r>
       <r>    19.4208     0.0000    24.0000 </r>
       <r>    19.4999     0.0000    24.0000 </r>
      </set>
     </set>
    </array>
   </total>
  </dos>
 </calculation>
 <structure name="finalpos" >
  <crystal>
   <varray name="basis" >
    <v>       4.04336400       0.00000000       0.00000000 </v>
    <v>       0.24260200       4.03608000       0.00000000 </v>
    <v>       0.00000000       0.00000000       4.04336400 </v>
   </varray>
   <i name="volume">     65.98503418 </i>
   <varray name="rec_basis" >
    <v>       0.24731882      -0.01486592       0.00000000 </v>
    <v>       0.00000000       0.24776516       0.00000000 </v>
    <v>       0.00000000       0.00000000       0.24731882 </v>
   </varray>
  </crystal>
  <varray name="positions" >
   <v>       0.00000000       0.00000000       0.00000000 </v>
   <v>       0.00000000       0.50000000       0.50000000 </v>
   <v>       0.50000000       0.00000000       0.50000000 </v>
   <v>       0.50000000       0.50000000       0.00000000 </v>
  </varray>
 </structure>
</modeling>
