<?xml version="1.0" encoding="ISO-8859-1"?>
<modeling>
 <generator>
  <i name="program" type="string">vasp </i>
  <i name="version" type="string">5.4.4.18Apr17-6-g9f103f2a35  </i>
  <i name="subversion" type="string">(build Jun 11 2017 21:30:58) complex            parallel </i>
  <i name="platform" type="string">LinuxIFC </i>
  <i name="date" type="string">2022 07 07 </i>
  <i name="time" type="string">18:39:14 </i>
 </generator>
 <incar>
  <i type="string" name="PREC">accurate</i>
  <i type="string" name="ALGO"> Normal</i>
  <i type="logical" name="ADDGRID"> T  </i>
  <i type="int" name="NELM">   100</i>
  <i type="int" name="NELMIN">     4</i>
  <i type="int" name="IBRION">    -1</i>
  <i name="EDIFF">      0.00005000</i>
  <i name="ENCUT">    520.00000000</i>
  <i type="logical" name="LREAL"> F  </i>
  <i type="int" name="ISMEAR">     1</i>
  <i name="SIGMA">      0.05000000</i>
  <i type="logical" name="LWAVE"> F  </i>
  <i type="logical" name="LCHARG"> F  </i>
  <i type="logical" name="LASPH"> T  </i>
  <v type="int" name="KPOINT_BSE">    -1     0     0     0</v>
  <i type="int" name="NELM">   100</i>
  <i type="logical" name="LASPH"> T  </i>
 </incar>
 <structure name="primitive_cell" >
  <crystal>
   <varray name="basis" >
    <v>      -2.02168200       0.00000000       2.02168200 </v>
    <v>       2.02168200       0.00000000       2.02168200 </v>
    <v>      -0.24260200       2.00707300      -2.02168200 </v>
   </varray>
   <i name="volume">     16.40660994 </i>
   <varray name="rec_basis" >
    <v>      -0.24731882       0.21922469       0.24731882 </v>
    <v>       0.24731882       0.27901329       0.24731882 </v>
    <v>       0.00000000       0.49823798       0.00000000 </v>
   </varray>
  </crystal>
  <varray name="positions" >
   <v>       0.00000000       0.00000000       0.00000000 </v>
  </varray>
 </structure>
 <varray name="primitive_index" >
  <v type="int" >        1 </v>
 </varray>
 <kpoints>
  <generation param="Gamma">
   <v type="int" name="divisions">      11       11       11 </v>
   <v name="usershift">      0.00000000       0.00000000       0.00000000 </v>
   <v name="genvec1">      0.09090909       0.00000000       0.00000000 </v>
   <v name="genvec2">      0.00000000       0.09090909       0.00000000 </v>
   <v name="genvec3">      0.00000000       0.00000000       0.09090909 </v>
   <v name="shift">      0.00000000       0.00000000       0.00000000 </v>
  </generation>
  <varray name="kpointlist" >
   <v>       0.00000000       0.00000000       0.00000000 </v>
   <v>       0.09090909      -0.00000000       0.00000000 </v>
   <v>       0.18181818      -0.00000000       0.00000000 </v>
   <v>       0.27272727       0.00000000       0.00000000 </v>
   <v>       0.36363636      -0.00000000       0.00000000 </v>
   <v>       0.45454545      -0.00000000       0.00000000 </v>
   <v>       0.09090909       0.09090909       0.00000000 </v>
   <v>       0.18181818       0.09090909       0.00000000 </v>
   <v>       0.27272727       0.09090909       0.00000000 </v>
   <v>       0.36363636       0.09090909       0.00000000 </v>
   <v>       0.45454545       0.09090909       0.00000000 </v>
   <v>      -0.45454545       0.09090909       0.00000000 </v>
   <v>      -0.36363636       0.09090909       0.00000000 </v>
   <v>      -0.27272727       0.09090909       0.00000000 </v>
   <v>      -0.18181818       0.09090909       0.00000000 </v>
   <v>      -0.09090909       0.09090909       0.00000000 </v>
   <v>       0.18181818       0.18181818       0.00000000 </v>
   <v>       0.27272727       0.18181818       0.00000000 </v>
   <v>       0.36363636       0.18181818       0.00000000 </v>
   <v>       0.45454545       0.18181818       0.00000000 </v>
   <v>      -0.45454545       0.18181818       0.00000000 </v>
   <v>      -0.36363636       0.18181818       0.00000000 </v>
   <v>      -0.27272727       0.18181818       0.00000000 </v>
   <v>      -0.18181818       0.18181818       0.00000000 </v>
   <v>       0.27272727       0.27272727       0.00000000 </v>
   <v>       0.36363636       0.27272727       0.00000000 </v>
   <v>       0.45454545       0.27272727       0.00000000 </v>
   <v>      -0.45454545       0.27272727       0.00000000 </v>
   <v>      -0.36363636       0.27272727       0.00000000 </v>
   <v>      -0.27272727       0.27272727       0.00000000 </v>
   <v>       0.36363636       0.36363636       0.00000000 </v>
   <v>       0.45454545       0.36363636       0.00000000 </v>
   <v>      -0.45454545       0.36363636       0.00000000 </v>
   <v>      -0.36363636       0.36363636       0.00000000 </v>
   <v>       0.45454545       0.45454545       0.00000000 </v>
   <v>      -0.45454545       0.45454545       0.00000000 </v>
   <v>       0.00000000       0.00000000       0.09090909 </v>
   <v>       0.09090909      -0.00000000       0.09090909 </v>
   <v>       0.18181818      -0.00000000       0.09090909 </v>
   <v>       0.27272727       0.00000000       0.09090909 </v>
   <v>       0.36363636      -0.00000000       0.09090909 </v>
   <v>       0.45454545      -0.00000000       0.09090909 </v>
   <v>       0.09090909       0.09090909       0.09090909 </v>
   <v>       0.18181818       0.09090909       0.09090909 </v>
   <v>       0.27272727       0.09090909       0.09090909 </v>
   <v>       0.36363636       0.09090909       0.09090909 </v>
   <v>       0.45454545       0.09090909       0.09090909 </v>
   <v>      -0.45454545       0.09090909       0.09090909 </v>
   <v>      -0.36363636       0.09090909       0.09090909 </v>
   <v>      -0.27272727       0.09090909       0.09090909 </v>
   <v>      -0.18181818       0.09090909       0.09090909 </v>
   <v>      -0.09090909       0.09090909       0.09090909 </v>
   <v>       0.18181818       0.18181818       0.09090909 </v>
   <v>       0.27272727       0.18181818       0.09090909 </v>
   <v>       0.36363636       0.18181818       0.09090909 </v>
   <v>       0.45454545       0.18181818       0.09090909 </v>
   <v>      -0.45454545       0.18181818       0.09090909 </v>
   <v>      -0.36363636       0.18181818       0.09090909 </v>
   <v>      -0.27272727       0.18181818       0.09090909 </v>
   <v>      -0.18181818       0.18181818       0.09090909 </v>
   <v>       0.27272727       0.27272727       0.09090909 </v>
   <v>       0.36363636       0.27272727       0.09090909 </v>
   <v>       0.45454545       0.27272727       0.09090909 </v>
   <v>      -0.45454545       0.27272727       0.09090909 </v>
   <v>      -0.36363636       0.27272727       0.09090909 </v>
   <v>      -0.27272727       0.27272727       0.09090909 </v>
   <v>       0.36363636       0.36363636       0.09090909 </v>
   <v>       0.45454545       0.36363636       0.09090909 </v>
   <v>      -0.45454545       0.36363636       0.09090909 </v>
   <v>      -0.36363636       0.36363636       0.09090909 </v>
   <v>       0.45454545       0.45454545       0.09090909 </v>
   <v>      -0.45454545       0.45454545       0.09090909 </v>
   <v>       0.00000000       0.00000000       0.18181818 </v>
   <v>       0.09090909      -0.00000000       0.18181818 </v>
   <v>       0.18181818      -0.00000000       0.18181818 </v>
   <v>       0.27272727       0.00000000       0.18181818 </v>
   <v>       0.36363636      -0.00000000       0.18181818 </v>
   <v>       0.45454545      -0.00000000       0.18181818 </v>
   <v>       0.09090909       0.09090909       0.18181818 </v>
   <v>       0.18181818       0.09090909       0.18181818 </v>
   <v>       0.27272727       0.09090909       0.18181818 </v>
   <v>       0.36363636       0.09090909       0.18181818 </v>
   <v>       0.45454545       0.09090909       0.18181818 </v>
   <v>      -0.45454545       0.09090909       0.18181818 </v>
   <v>      -0.36363636       0.09090909       0.18181818 </v>
   <v>      -0.27272727       0.09090909       0.18181818 </v>
   <v>      -0.18181818       0.09090909       0.18181818 </v>
   <v>      -0.09090909       0.09090909       0.18181818 </v>
   <v>       0.18181818       0.18181818       0.18181818 </v>
   <v>       0.27272727       0.18181818       0.18181818 </v>
   <v>       0.36363636       0.18181818       0.18181818 </v>
   <v>       0.45454545       0.18181818       0.18181818 </v>
   <v>      -0.45454545       0.18181818       0.18181818 </v>
   <v>      -0.36363636       0.18181818       0.18181818 </v>
   <v>      -0.27272727       0.18181818       0.18181818 </v>
   <v>      -0.18181818       0.18181818       0.18181818 </v>
   <v>       0.27272727       0.27272727       0.18181818 </v>
   <v>       0.36363636       0.27272727       0.18181818 </v>
   <v>       0.45454545       0.27272727       0.18181818 </v>
   <v>      -0.45454545       0.27272727       0.18181818 </v>
   <v>      -0.36363636       0.27272727       0.18181818 </v>
   <v>      -0.27272727       0.27272727       0.18181818 </v>
   <v>       0.36363636       0.36363636       0.18181818 </v>
   <v>       0.45454545       0.36363636       0.18181818 </v>
   <v>      -0.45454545       0.36363636       0.18181818 </v>
   <v>      -0.36363636       0.36363636       0.18181818 </v>
   <v>       0.45454545       0.45454545       0.18181818 </v>
   <v>      -0.45454545       0.45454545       0.18181818 </v>
   <v>       0.00000000       0.00000000       0.27272727 </v>
   <v>       0.09090909      -0.00000000       0.27272727 </v>
   <v>       0.18181818      -0.00000000       0.27272727 </v>
   <v>       0.27272727       0.00000000       0.27272727 </v>
   <v>       0.36363636      -0.00000000       0.27272727 </v>
   <v>       0.45454545      -0.00000000       0.27272727 </v>
   <v>       0.09090909       0.09090909       0.27272727 </v>
   <v>       0.18181818       0.09090909       0.27272727 </v>
   <v>       0.27272727       0.09090909       0.27272727 </v>
   <v>       0.36363636       0.09090909       0.27272727 </v>
   <v>       0.45454545       0.09090909       0.27272727 </v>
   <v>      -0.45454545       0.09090909       0.27272727 </v>
   <v>      -0.36363636       0.09090909       0.27272727 </v>
   <v>      -0.27272727       0.09090909       0.27272727 </v>
   <v>      -0.18181818       0.09090909       0.27272727 </v>
   <v>      -0.09090909       0.09090909       0.27272727 </v>
   <v>       0.18181818       0.18181818       0.27272727 </v>
   <v>       0.27272727       0.18181818       0.27272727 </v>
   <v>       0.36363636       0.18181818       0.27272727 </v>
   <v>       0.45454545       0.18181818       0.27272727 </v>
   <v>      -0.45454545       0.18181818       0.27272727 </v>
   <v>      -0.36363636       0.18181818       0.27272727 </v>
   <v>      -0.27272727       0.18181818       0.27272727 </v>
   <v>      -0.18181818       0.18181818       0.27272727 </v>
   <v>       0.27272727       0.27272727       0.27272727 </v>
   <v>       0.36363636       0.27272727       0.27272727 </v>
   <v>       0.45454545       0.27272727       0.27272727 </v>
   <v>      -0.45454545       0.27272727       0.27272727 </v>
   <v>      -0.36363636       0.27272727       0.27272727 </v>
   <v>      -0.27272727       0.27272727       0.27272727 </v>
   <v>       0.36363636       0.36363636       0.27272727 </v>
   <v>       0.45454545       0.36363636       0.27272727 </v>
   <v>      -0.45454545       0.36363636       0.27272727 </v>
   <v>      -0.36363636       0.36363636       0.27272727 </v>
   <v>       0.45454545       0.45454545       0.27272727 </v>
   <v>      -0.45454545       0.45454545       0.27272727 </v>
   <v>       0.00000000       0.00000000       0.36363636 </v>
   <v>       0.09090909      -0.00000000       0.36363636 </v>
   <v>       0.18181818      -0.00000000       0.36363636 </v>
   <v>       0.27272727       0.00000000       0.36363636 </v>
   <v>       0.36363636      -0.00000000       0.36363636 </v>
   <v>       0.45454545      -0.00000000       0.36363636 </v>
   <v>       0.09090909       0.09090909       0.36363636 </v>
   <v>       0.18181818       0.09090909       0.36363636 </v>
   <v>       0.27272727       0.09090909       0.36363636 </v>
   <v>       0.36363636       0.09090909       0.36363636 </v>
   <v>       0.45454545       0.09090909       0.36363636 </v>
   <v>      -0.45454545       0.09090909       0.36363636 </v>
   <v>      -0.36363636       0.09090909       0.36363636 </v>
   <v>      -0.27272727       0.09090909       0.36363636 </v>
   <v>      -0.18181818       0.09090909       0.36363636 </v>
   <v>      -0.09090909       0.09090909       0.36363636 </v>
   <v>       0.18181818       0.18181818       0.36363636 </v>
   <v>       0.27272727       0.18181818       0.36363636 </v>
   <v>       0.36363636       0.18181818       0.36363636 </v>
   <v>       0.45454545       0.18181818       0.36363636 </v>
   <v>      -0.45454545       0.18181818       0.36363636 </v>
   <v>      -0.36363636       0.18181818       0.36363636 </v>
   <v>      -0.27272727       0.18181818       0.36363636 </v>
   <v>      -0.18181818       0.18181818       0.36363636 </v>
   <v>       0.27272727       0.27272727       0.36363636 </v>
   <v>       0.36363636       0.27272727       0.36363636 </v>
   <v>       0.45454545       0.27272727       0.36363636 </v>
   <v>      -0.45454545       0.27272727       0.36363636 </v>
   <v>      -0.36363636       0.27272727       0.36363636 </v>
   <v>      -0.27272727       0.27272727       0.36363636 </v>
   <v>       0.36363636       0.36363636       0.36363636 </v>
   <v>       0.45454545       0.36363636       0.36363636 </v>
   <v>      -0.45454545       0.36363636       0.36363636 </v>
   <v>      -0.36363636       0.36363636       0.36363636 </v>
   <v>       0.45454545       0.45454545       0.36363636 </v>
   <v>      -0.45454545       0.45454545       0.36363636 </v>
   <v>       0.00000000       0.00000000       0.45454545 </v>
   <v>       0.09090909      -0.00000000       0.45454545 </v>
   <v>       0.18181818      -0.00000000       0.45454545 </v>
   <v>       0.27272727       0.00000000       0.45454545 </v>
   <v>       0.36363636      -0.00000000       0.45454545 </v>
   <v>       0.45454545      -0.00000000       0.45454545 </v>
   <v>       0.09090909       0.09090909       0.45454545 </v>
   <v>       0.18181818       0.09090909       0.45454545 </v>
   <v>       0.27272727       0.09090909       0.45454545 </v>
   <v>       0.36363636       0.09090909       0.45454545 </v>
   <v>       0.45454545       0.09090909       0.45454545 </v>
   <v>      -0.45454545       0.09090909       0.45454545 </v>
   <v>      -0.36363636       0.09090909       0.45454545 </v>
   <v>      -0.27272727       0.09090909       0.45454545 </v>
   <v>      -0.18181818       0.09090909       0.45454545 </v>
   <v>      -0.09090909       0.09090909       0.45454545 </v>
   <v>       0.18181818       0.18181818       0.45454545 </v>
   <v>       0.27272727       0.18181818       0.45454545 </v>
   <v>       0.36363636       0.18181818       0.45454545 </v>
   <v>       0.45454545       0.18181818       0.45454545 </v>
   <v>      -0.45454545       0.18181818       0.45454545 </v>
   <v>      -0.36363636       0.18181818       0.45454545 </v>
   <v>      -0.27272727       0.18181818       0.45454545 </v>
   <v>      -0.18181818       0.18181818       0.45454545 </v>
   <v>       0.27272727       0.27272727       0.45454545 </v>
   <v>       0.36363636       0.27272727       0.45454545 </v>
   <v>       0.45454545       0.27272727       0.45454545 </v>
   <v>      -0.45454545       0.27272727       0.45454545 </v>
   <v>      -0.36363636       0.27272727       0.45454545 </v>
   <v>      -0.27272727       0.27272727       0.45454545 </v>
   <v>       0.36363636       0.36363636       0.45454545 </v>
   <v>       0.45454545       0.36363636       0.45454545 </v>
   <v>      -0.45454545       0.36363636       0.45454545 </v>
   <v>      -0.36363636       0.36363636       0.45454545 </v>
   <v>       0.45454545       0.45454545       0.45454545 </v>
   <v>      -0.45454545       0.45454545       0.45454545 </v>
  </varray>
  <varray name="weights" >
   <v>       0.00075131 </v>
   <v>       0.00300526 </v>
   <v>       0.00300526 </v>
   <v>       0.00300526 </v>
   <v>       0.00300526 </v>
   <v>       0.00300526 </v>
   <v>       0.00150263 </v>
   <v>       0.00300526 </v>
   <v>       0.00300526 </v>
   <v>       0.00300526 </v>
   <v>       0.00300526 </v>
   <v>       0.00300526 </v>
   <v>       0.00300526 </v>
   <v>       0.00300526 </v>
   <v>       0.00300526 </v>
   <v>       0.00150263 </v>
   <v>       0.00150263 </v>
   <v>       0.00300526 </v>
   <v>       0.00300526 </v>
   <v>       0.00300526 </v>
   <v>       0.00300526 </v>
   <v>       0.00300526 </v>
   <v>       0.00300526 </v>
   <v>       0.00150263 </v>
   <v>       0.00150263 </v>
   <v>       0.00300526 </v>
   <v>       0.00300526 </v>
   <v>       0.00300526 </v>
   <v>       0.00300526 </v>
   <v>       0.00150263 </v>
   <v>       0.00150263 </v>
   <v>       0.00300526 </v>
   <v>       0.00300526 </v>
   <v>       0.00150263 </v>
   <v>       0.00150263 </v>
   <v>       0.00150263 </v>
   <v>       0.00150263 </v>
   <v>       0.00601052 </v>
   <v>       0.00601052 </v>
   <v>       0.00601052 </v>
   <v>       0.00601052 </v>
   <v>       0.00601052 </v>
   <v>       0.00300526 </v>
   <v>       0.00601052 </v>
   <v>       0.00601052 </v>
   <v>       0.00601052 </v>
   <v>       0.00601052 </v>
   <v>       0.00601052 </v>
   <v>       0.00601052 </v>
   <v>       0.00601052 </v>
   <v>       0.00601052 </v>
   <v>       0.00300526 </v>
   <v>       0.00300526 </v>
   <v>       0.00601052 </v>
   <v>       0.00601052 </v>
   <v>       0.00601052 </v>
   <v>       0.00601052 </v>
   <v>       0.00601052 </v>
   <v>       0.00601052 </v>
   <v>       0.00300526 </v>
   <v>       0.00300526 </v>
   <v>       0.00601052 </v>
   <v>       0.00601052 </v>
   <v>       0.00601052 </v>
   <v>       0.00601052 </v>
   <v>       0.00300526 </v>
   <v>       0.00300526 </v>
   <v>       0.00601052 </v>
   <v>       0.00601052 </v>
   <v>       0.00300526 </v>
   <v>       0.00300526 </v>
   <v>       0.00300526 </v>
   <v>       0.00150263 </v>
   <v>       0.00601052 </v>
   <v>       0.00601052 </v>
   <v>       0.00601052 </v>
   <v>       0.00601052 </v>
   <v>       0.00601052 </v>
   <v>       0.00300526 </v>
   <v>       0.00601052 </v>
   <v>       0.00601052 </v>
   <v>       0.00601052 </v>
   <v>       0.00601052 </v>
   <v>       0.00601052 </v>
   <v>       0.00601052 </v>
   <v>       0.00601052 </v>
   <v>       0.00601052 </v>
   <v>       0.00300526 </v>
   <v>       0.00300526 </v>
   <v>       0.00601052 </v>
   <v>       0.00601052 </v>
   <v>       0.00601052 </v>
   <v>       0.00601052 </v>
   <v>       0.00601052 </v>
   <v>       0.00601052 </v>
   <v>       0.00300526 </v>
   <v>       0.00300526 </v>
   <v>       0.00601052 </v>
   <v>       0.00601052 </v>
   <v>       0.00601052 </v>
   <v>       0.00601052 </v>
   <v>       0.00300526 </v>
   <v>       0.00300526 </v>
   <v>       0.00601052 </v>
   <v>       0.00601052 </v>
   <v>       0.00300526 </v>
   <v>       0.00300526 </v>
   <v>       0.00300526 </v>
   <v>       0.00150263 </v>
   <v>       0.00601052 </v>
   <v>       0.00601052 </v>
   <v>       0.00601052 </v>
   <v>       0.00601052 </v>
   <v>       0.00601052 </v>
   <v>       0.00300526 </v>
   <v>       0.00601052 </v>
   <v>       0.00601052 </v>
   <v>       0.00601052 </v>
   <v>       0.00601052 </v>
   <v>       0.00601052 </v>
   <v>       0.00601052 </v>
   <v>       0.00601052 </v>
   <v>       0.00601052 </v>
   <v>       0.00300526 </v>
   <v>       0.00300526 </v>
   <v>       0.00601052 </v>
   <v>       0.00601052 </v>
   <v>       0.00601052 </v>
   <v>       0.00601052 </v>
   <v>       0.00601052 </v>
   <v>       0.00601052 </v>
   <v>       0.00300526 </v>
   <v>       0.00300526 </v>
   <v>       0.00601052 </v>
   <v>       0.00601052 </v>
   <v>       0.00601052 </v>
   <v>       0.00601052 </v>
   <v>       0.00300526 </v>
   <v>       0.00300526 </v>
   <v>       0.00601052 </v>
   <v>       0.00601052 </v>
   <v>       0.00300526 </v>
   <v>       0.00300526 </v>
   <v>       0.00300526 </v>
   <v>       0.00150263 </v>
   <v>       0.00601052 </v>
   <v>       0.00601052 </v>
   <v>       0.00601052 </v>
   <v>       0.00601052 </v>
   <v>       0.00601052 </v>
   <v>       0.00300526 </v>
   <v>       0.00601052 </v>
   <v>       0.00601052 </v>
   <v>       0.00601052 </v>
   <v>       0.00601052 </v>
   <v>       0.00601052 </v>
   <v>       0.00601052 </v>
   <v>       0.00601052 </v>
   <v>       0.00601052 </v>
   <v>       0.00300526 </v>
   <v>       0.00300526 </v>
   <v>       0.00601052 </v>
   <v>       0.00601052 </v>
   <v>       0.00601052 </v>
   <v>       0.00601052 </v>
   <v>       0.00601052 </v>
   <v>       0.00601052 </v>
   <v>       0.00300526 </v>
   <v>       0.00300526 </v>
   <v>       0.00601052 </v>
   <v>       0.00601052 </v>
   <v>       0.00601052 </v>
   <v>       0.00601052 </v>
   <v>       0.00300526 </v>
   <v>       0.00300526 </v>
   <v>       0.00601052 </v>
   <v>       0.00601052 </v>
   <v>       0.00300526 </v>
   <v>       0.00300526 </v>
   <v>       0.00300526 </v>
   <v>       0.00150263 </v>
   <v>       0.00601052 </v>
   <v>       0.00601052 </v>
   <v>       0.00601052 </v>
   <v>       0.00601052 </v>
   <v>       0.00601052 </v>
   <v>       0.00300526 </v>
   <v>       0.00601052 </v>
   <v>       0.00601052 </v>
   <v>       0.00601052 </v>
   <v>       0.00601052 </v>
   <v>       0.00601052 </v>
   <v>       0.00601052 </v>
   <v>       0.00601052 </v>
   <v>       0.00601052 </v>
   <v>       0.00300526 </v>
   <v>       0.00300526 </v>
   <v>       0.00601052 </v>
   <v>       0.00601052 </v>
   <v>       0.00601052 </v>
   <v>       0.00601052 </v>
   <v>       0.00601052 </v>
   <v>       0.00601052 </v>
   <v>       0.00300526 </v>
   <v>       0.00300526 </v>
   <v>       0.00601052 </v>
   <v>       0.00601052 </v>
   <v>       0.00601052 </v>
   <v>       0.00601052 </v>
   <v>       0.00300526 </v>
   <v>       0.00300526 </v>
   <v>       0.00601052 </v>
   <v>       0.00601052 </v>
   <v>       0.00300526 </v>
   <v>       0.00300526 </v>
   <v>       0.00300526 </v>
  </varray>
 </kpoints>
 <parameters>
  <separator name="general" >
   <i type="string" name="SYSTEM">unknown system</i>
   <i type="logical" name="LCOMPAT"> F  </i>
  </separator>
  <separator name="electronic" >
   <i type="string" name="PREC">accura</i>
   <i name="ENMAX">    520.00000000</i>
   <i name="ENAUG">    291.05200000</i>
   <i name="EDIFF">      0.00005000</i>
   <i type="int" name="IALGO">    38</i>
   <i type="int" name="IWAVPR">    10</i>
   <i type="int" name="NBANDS">    12</i>
   <i name="NELECT">     12.00000000</i>
   <i type="int" name="TURBO">     0</i>
   <i type="int" name="IRESTART">     0</i>
   <i type="int" name="NREBOOT">     0</i>
   <i type="int" name="NMIN">     0</i>
   <i name="EREF">      0.00000000</i>
   <separator name="electronic smearing" >
    <i type="int" name="ISMEAR">     1</i>
    <i name="SIGMA">      0.05000000</i>
    <i name="KSPACING">      0.50000000</i>
    <i type="logical" name="KGAMMA"> T  </i>
   </separator>
   <separator name="electronic projectors" >
    <i type="logical" name="LREAL"> F  </i>
    <v name="ROPT">      0.00000000</v>
    <i type="int" name="LMAXPAW">  -100</i>
    <i type="int" name="LMAXMIX">     2</i>
    <i type="logical" name="NLSPLINE"> F  </i>
   </separator>
   <separator name="electronic startup" >
    <i type="int" name="ISTART">     0</i>
    <i type="int" name="ICHARG">     2</i>
    <i type="int" name="INIWAV">     1</i>
   </separator>
   <separator name="electronic spin" >
    <i type="int" name="ISPIN">     1</i>
    <i type="logical" name="LNONCOLLINEAR"> F  </i>
    <v name="MAGMOM">      1.00000000      1.00000000      1.00000000      1.00000000</v>
    <i name="NUPDOWN">     -1.00000000</i>
    <i type="logical" name="LSORBIT"> F  </i>
    <v name="SAXIS">      0.00000000      0.00000000      1.00000000</v>
    <i type="logical" name="LSPIRAL"> F  </i>
    <v name="QSPIRAL">      0.00000000      0.00000000      0.00000000</v>
    <i type="logical" name="LZEROZ"> F  </i>
   </separator>
   <separator name="electronic exchange-correlation" >
    <i type="logical" name="LASPH"> T  </i>
    <i type="logical" name="LMETAGGA"> F  </i>
   </separator>
   <separator name="electronic convergence" >
    <i type="int" name="NELM">   100</i>
    <i type="int" name="NELMDL">    -5</i>
    <i type="int" name="NELMIN">     4</i>
    <i name="ENINI">    520.00000000</i>
    <separator name="electronic convergence detail" >
     <i type="logical" name="LDIAG"> T  </i>
     <i type="logical" name="LSUBROT"> F  </i>
     <i name="WEIMIN">      0.00000000</i>
     <i name="EBREAK">      0.00000104</i>
     <i name="DEPER">      0.30000000</i>
     <i type="int" name="NRMM">     4</i>
     <i name="TIME">      0.40000000</i>
    </separator>
   </separator>
   <separator name="electronic mixer" >
    <i name="AMIX">      0.40000000</i>
    <i name="BMIX">      1.00000000</i>
    <i name="AMIN">      0.10000000</i>
    <i name="AMIX_MAG">      1.60000000</i>
    <i name="BMIX_MAG">      1.00000000</i>
    <separator name="electronic mixer details" >
     <i type="int" name="IMIX">     4</i>
     <i type="logical" name="MIXFIRST"> F  </i>
     <i type="int" name="MAXMIX">   -45</i>
     <i name="WC">    100.00000000</i>
     <i type="int" name="INIMIX">     1</i>
     <i type="int" name="MIXPRE">     1</i>
     <i type="int" name="MREMOVE">     5</i>
    </separator>
   </separator>
   <separator name="electronic dipolcorrection" >
    <i type="logical" name="LDIPOL"> F  </i>
    <i type="logical" name="LMONO"> F  </i>
    <i type="int" name="IDIPOL">     0</i>
    <i name="EPSILON">      1.00000000</i>
    <v name="DIPOL">   -100.00000000   -100.00000000   -100.00000000</v>
    <i name="EFIELD">      0.00000000</i>
   </separator>
  </separator>
  <separator name="grids" >
   <i type="int" name="NGX">    30</i>
   <i type="int" name="NGY">    30</i>
   <i type="int" name="NGZ">    30</i>
   <i type="int" name="NGXF">    60</i>
   <i type="int" name="NGYF">    60</i>
   <i type="int" name="NGZF">    60</i>
   <i type="logical" name="ADDGRID"> T  </i>
  </separator>
  <separator name="ionic" >
   <i type="int" name="NSW">     0</i>
   <i type="int" name="IBRION">    -1</i>
   <i type="int" name="MDALGO">     0</i>
   <i type="int" name="ISIF">     2</i>
   <i name="PSTRESS">      0.00000000</i>
   <i name="EDIFFG">      0.00050000</i>
   <i type="int" name="NFREE">     0</i>
   <i name="POTIM">      0.50000000</i>
   <i name="SMASS">     -3.00000000</i>
   <i name="SCALEE">      1.00000000</i>
  </separator>
  <separator name="ionic md" >
   <i name="TEBEG">      0.00010000</i>
   <i name="TEEND">      0.00010000</i>
   <i type="int" name="NBLOCK">     1</i>
   <i type="int" name="KBLOCK">     1</i>
   <i type="int" name="NPACO">   256</i>
   <i name="APACO">     16.00000000</i>
  </separator>
  <separator name="symmetry" >
   <i type="int" name="ISYM">     2</i>
   <i name="SYMPREC">      0.00001000</i>
  </separator>
  <separator name="dos" >
   <i type="int" name="LORBIT">     0</i>
   <v name="RWIGS">     -1.00000000</v>
   <i type="int" name="NEDOS">   301</i>
   <i name="EMIN">     10.00000000</i>
   <i name="EMAX">    -10.00000000</i>
   <i name="EFERMI">      0.00000000</i>
  </separator>
  <separator name="writing" >
   <i type="int" name="NWRITE">     2</i>
   <i type="logical" name="LWAVE"> F  </i>
   <i type="logical" name="LDOWNSAMPLE"> F  </i>
   <i type="logical" name="LCHARG"> F  </i>
   <i type="logical" name="LPARD"> F  </i>
   <i type="logical" name="LVTOT"> F  </i>
   <i type="logical" name="LVHAR"> F  </i>
   <i type="logical" name="LELF"> F  </i>
   <i type="logical" name="LOPTICS"> F  </i>
   <v name="STM">      0.00000000      0.00000000      0.00000000      0.00000000      0.00000000      0.00000000      0.00000000</v>
  </separator>
  <separator name="performance" >
   <i type="int" name="NPAR">     4</i>
   <i type="int" name="NSIM">     4</i>
   <i type="int" name="NBLK">    -1</i>
   <i type="logical" name="LPLANE"> T  </i>
   <i type="logical" name="LSCALAPACK"> T  </i>
   <i type="logical" name="LSCAAWARE"> F  </i>
   <i type="logical" name="LSCALU"> F  </i>
   <i type="logical" name="LASYNC"> F  </i>
   <i type="logical" name="LORBITALREAL"> F  </i>
  </separator>
  <separator name="miscellaneous" >
   <i type="int" name="IDIOT">     3</i>
   <i type="int" name="ISPECIAL">     0</i>
   <i type="logical" name="LMUSIC"> F  </i>
   <v name="POMASS">     26.98100000</v>
   <v name="DARWINR">      0.00000000</v>
   <v name="DARWINV">      1.00000000</v>
   <i type="logical" name="LCORR"> T  </i>
  </separator>
  <i type="logical" name="GGA_COMPAT"> T  </i>
  <i type="logical" name="LBERRY"> F  </i>
  <i type="int" name="ICORELEVEL">     0</i>
  <i type="logical" name="LDAU"> F  </i>
  <i type="int" name="I_CONSTRAINED_M">     0</i>
  <separator name="electronic exchange-correlation" >
   <i type="string" name="GGA">--</i>
   <i type="int" name="VOSKOWN">     0</i>
   <i type="logical" name="LHFCALC"> F  </i>
   <i type="string" name="PRECFOCK"></i>
   <i type="logical" name="LSYMGRAD"> F  </i>
   <i type="logical" name="LHFONE"> F  </i>
   <i type="logical" name="LRHFCALC"> F  </i>
   <i type="logical" name="LTHOMAS"> F  </i>
   <i type="logical" name="LMODELHF"> F  </i>
   <i name="ENCUT4O">     -1.00000000</i>
   <i type="int" name="EXXOEP">     0</i>
   <i type="int" name="FOURORBIT">     0</i>
   <i name="AEXX">      0.00000000</i>
   <i name="HFALPHA">      0.00000000</i>
   <i name="MCALPHA">      0.00000000</i>
   <i name="ALDAX">      1.00000000</i>
   <i name="AGGAX">      1.00000000</i>
   <i name="ALDAC">      1.00000000</i>
   <i name="AGGAC">      1.00000000</i>
   <i type="int" name="NKREDX">     1</i>
   <i type="int" name="NKREDY">     1</i>
   <i type="int" name="NKREDZ">     1</i>
   <i type="logical" name="SHIFTRED"> F  </i>
   <i type="logical" name="ODDONLY"> F  </i>
   <i type="logical" name="EVENONLY"> F  </i>
   <i type="int" name="LMAXFOCK">     0</i>
   <i type="int" name="NMAXFOCKAE">     0</i>
   <i type="logical" name="LFOCKAEDFT"> F  </i>
   <i name="HFSCREEN">      0.00000000</i>
   <i name="HFSCREENC">      0.00000000</i>
   <i type="int" name="NBANDSGWLOW">     0</i>
  </separator>
  <separator name="vdW DFT" >
   <i type="logical" name="LUSE_VDW"> F  </i>
   <i name="Zab_VDW">     -0.84910000</i>
   <i name="PARAM1">      0.12340000</i>
   <i name="PARAM2">      1.00000000</i>
   <i name="PARAM3">      0.00000000</i>
  </separator>
  <separator name="model GW" >
   <i type="int" name="MODEL_GW">     0</i>
   <i name="MODEL_EPS0">      9.84396596</i>
   <i name="MODEL_ALPHA">      1.00000000</i>
  </separator>
  <separator name="linear response parameters" >
   <i type="logical" name="LEPSILON"> F  </i>
   <i type="logical" name="LRPA"> F  </i>
   <i type="logical" name="LNABLA"> F  </i>
   <i type="logical" name="LVEL"> F  </i>
   <i type="int" name="KINTER">     0</i>
   <i name="CSHIFT">      0.10000000</i>
   <i name="OMEGAMAX">     -1.00000000</i>
   <i name="DEG_THRESHOLD">      0.00200000</i>
   <i name="RTIME">     -0.10000000</i>
   <i name="WPLASMAI">      0.00000000</i>
   <v name="DFIELD">      0.00000000      0.00000000      0.00000000</v>
   <v name="WPLASMA">      0.00000000      0.00000000      0.00000000      0.00000000      0.00000000      0.00000000      0.00000000      0.00000000      0.00000000</v>
  </separator>
  <separator name="orbital magnetization" >
   <i type="logical" name="NUCIND"> F  </i>
   <v name="MAGPOS">      0.00000000      0.00000000      0.00000000</v>
   <i type="logical" name="LNICSALL"> T  </i>
   <i type="logical" name="ORBITALMAG"> F  </i>
   <i type="logical" name="LMAGBLOCH"> F  </i>
   <i type="logical" name="LCHIMAG"> F  </i>
   <i type="logical" name="LGAUGE"> T  </i>
   <i type="int" name="MAGATOM">     0</i>
   <v name="MAGDIPOL">      0.00000000      0.00000000      0.00000000</v>
   <v name="AVECCONST">      0.00000000      0.00000000      0.00000000</v>
  </separator>
  <separator name="response functions" >
   <i type="logical" name="LADDER"> F  </i>
   <i type="logical" name="LRPAFORCE"> F  </i>
   <i type="logical" name="LFXC"> F  </i>
   <i type="logical" name="LHARTREE"> T  </i>
   <i type="int" name="IBSE">     0</i>
   <v type="int" name="KPOINT">    -1     0     0     0</v>
   <i type="logical" name="LTCTE"> F  </i>
   <i type="logical" name="LTETE"> F  </i>
   <i type="logical" name="LTRIPLET"> F  </i>
   <i type="logical" name="LFXCEPS"> F  </i>
   <i type="logical" name="LFXHEG"> F  </i>
   <i type="int" name="NATURALO">     2</i>
   <i type="logical" name="L2ORDER"> F  </i>
   <i type="logical" name="LMP2LT"> F  </i>
   <i type="logical" name="LUSEW"> F  </i>
   <i name="ENCUTGW">     -2.00000000</i>
   <i name="ENCUTGWSOFT">     -2.00000000</i>
   <i name="ENCUTLF">     -1.00000000</i>
   <i type="int" name="LMAXMP2">    -1</i>
   <i name="SCISSOR">      0.00000000</i>
   <i type="int" name="NOMEGA">     0</i>
   <i type="int" name="NOMEGAR">     0</i>
   <i type="int" name="NBANDSGW">    -1</i>
   <i type="int" name="NBANDSO">    -1</i>
   <i type="int" name="NBANDSV">    -1</i>
   <i type="int" name="NELM">   100</i>
   <i type="int" name="NELMHF">     1</i>
   <i type="int" name="DIM">     3</i>
   <i type="int" name="ANTIRES">     0</i>
   <i name="OMEGAMAX">    -30.00000000</i>
   <i name="OMEGAMIN">    -30.00000000</i>
   <i name="OMEGATL">   -200.00000000</i>
   <i type="int" name="OMEGAGRID">   140</i>
   <i name="CSHIFT">     -0.10000000</i>
   <i type="logical" name="SELFENERGY"> F  </i>
   <i type="logical" name="LSPECTRAL"> F  </i>
   <i type="logical" name="LSPECTRALGW"> F  </i>
   <i type="logical" name="LSINGLES"> F  </i>
   <i type="logical" name="LFERMIGW"> F  </i>
   <i type="logical" name="ODDONLYGW"> F  </i>
   <i type="logical" name="EVENONLYGW"> F  </i>
   <i type="int" name="NKREDLFX">     1</i>
   <i type="int" name="NKREDLFY">     1</i>
   <i type="int" name="NKREDLFZ">     1</i>
   <i type="int" name="MAXMEM">  2800</i>
   <i type="int" name="TELESCOPE">     0</i>
   <i type="int" name="TAUPAR">     1</i>
   <i type="int" name="OMEGAPAR">    -1</i>
   <i name="LAMBDA">      1.00000000</i>
  </separator>
  <separator name="External order field" >
   <i name="OFIELD_KAPPA">      0.00000000</i>
   <v name="OFIELD_K">      0.00000000      0.00000000      0.00000000</v>
   <i name="OFIELD_Q6_NEAR">      0.00000000</i>
   <i name="OFIELD_Q6_FAR">      0.00000000</i>
   <i name="OFIELD_A">      0.00000000</i>
  </separator>
 </parameters>
 <atominfo>
  <atoms>       4 </atoms>
  <types>       1 </types>
  <array name="atoms" >
   <dimension dim="1">ion</dimension>
   <field type="string">element</field>
   <field type="int">atomtype</field>
   <set>
    <rc><c>Al</c><c>   1</c></rc>
    <rc><c>Al</c><c>   1</c></rc>
    <rc><c>Al</c><c>   1</c></rc>
    <rc><c>Al</c><c>   1</c></rc>
   </set>
  </array>
  <array name="atomtypes" >
   <dimension dim="1">type</dimension>
   <field type="int">atomspertype</field>
   <field type="string">element</field>
   <field>mass</field>
   <field>valence</field>
   <field type="string">pseudopotential</field>
   <set>
    <rc><c>   4</c><c>Al</c><c>     26.98100000</c><c>      3.00000000</c><c>  PAW_PBE Al 04Jan2001                  </c></rc>
   </set>
  </array>
 </atominfo>
 <structure name="initialpos" >
  <crystal>
   <varray name="basis" >
    <v>       4.04336400       0.00000000       0.00000000 </v>
    <v>      -0.48520400       4.01414600       0.00000000 </v>
    <v>       0.00000000       0.00000000       4.04336400 </v>
   </varray>
   <i name="volume">     65.62643976 </i>
   <varray name="rec_basis" >
    <v>       0.24731882       0.02989430       0.00000000 </v>
    <v>       0.00000000       0.24911899       0.00000000 </v>
    <v>       0.00000000       0.00000000       0.24731882 </v>
   </varray>
  </crystal>
  <varray name="positions" >
   <v>       0.00000000       0.00000000       0.00000000 </v>
   <v>       0.00000000       0.50000000       0.50000000 </v>
   <v>       0.50000000       0.00000000       0.50000000 </v>
   <v>       0.50000000       0.50000000       0.00000000 </v>
  </varray>
 </structure>
 <calculation>
  <scstep>
   <time name="dav">    0.78    0.82</time>
   <time name="total">    0.87    0.92</time>
   <energy>
    <i name="alphaZ">     -0.81889188 </i>
    <i name="ewald">   -294.17001667 </i>
    <i name="hartreedc">     -0.47150259 </i>
    <i name="XCdc">   -104.91149677 </i>
    <i name="pawpsdc">    264.80062850 </i>
    <i name="pawaedc">   -136.98248303 </i>
    <i name="eentropy">     -0.00022737 </i>
    <i name="bandstr">     65.76158874 </i>
    <i name="atom">    214.15382826 </i>
    <i name="e_fr_energy">      7.36142719 </i>
    <i name="e_wo_entrp">      7.36165456 </i>
    <i name="e_0_energy">      7.36150298 </i>
   </energy>
  </scstep>
  <scstep>
   <time name="dav">    0.90    0.90</time>
   <time name="total">    0.90    0.90</time>
   <energy>
    <i name="e_fr_energy">    -14.22777239 </i>
    <i name="e_wo_entrp">    -14.22749667 </i>
    <i name="e_0_energy">    -14.22768048 </i>
   </energy>
  </scstep>
  <scstep>
   <time name="dav">    0.94    0.94</time>
   <time name="total">    0.95    0.95</time>
   <energy>
    <i name="e_fr_energy">    -14.95120893 </i>
    <i name="e_wo_entrp">    -14.95150532 </i>
    <i name="e_0_energy">    -14.95130773 </i>
   </energy>
  </scstep>
  <scstep>
   <time name="dav">    0.85    0.85</time>
   <time name="total">    0.85    0.85</time>
   <energy>
    <i name="e_fr_energy">    -14.95650392 </i>
    <i name="e_wo_entrp">    -14.95681060 </i>
    <i name="e_0_energy">    -14.95660615 </i>
   </energy>
  </scstep>
  <scstep>
   <time name="dav">    0.90    0.90</time>
   <time name="total">    0.97    0.97</time>
   <energy>
    <i name="e_fr_energy">    -14.95655811 </i>
    <i name="e_wo_entrp">    -14.95686488 </i>
    <i name="e_0_energy">    -14.95666037 </i>
   </energy>
  </scstep>
  <scstep>
   <time name="dav">    0.84    0.84</time>
   <time name="total">    1.00    1.00</time>
   <energy>
    <i name="e_fr_energy">    -14.90482999 </i>
    <i name="e_wo_entrp">    -14.90513805 </i>
    <i name="e_0_energy">    -14.90493268 </i>
   </energy>
  </scstep>
  <scstep>
   <time name="dav">    0.82    0.82</time>
   <time name="total">    0.97    0.97</time>
   <energy>
    <i name="e_fr_energy">    -14.86718466 </i>
    <i name="e_wo_entrp">    -14.86745581 </i>
    <i name="e_0_energy">    -14.86727504 </i>
   </energy>
  </scstep>
  <scstep>
   <time name="dav">    0.90    0.90</time>
   <time name="total">    1.04    1.04</time>
   <energy>
    <i name="e_fr_energy">    -14.86708270 </i>
    <i name="e_wo_entrp">    -14.86735517 </i>
    <i name="e_0_energy">    -14.86717352 </i>
   </energy>
  </scstep>
  <scstep>
   <time name="dav">    0.62    0.62</time>
   <time name="total">    0.71    0.71</time>
   <energy>
    <i name="alphaZ">     -0.81889188 </i>
    <i name="ewald">   -294.17001667 </i>
    <i name="hartreedc">     -0.56210312 </i>
    <i name="XCdc">   -104.45432954 </i>
    <i name="pawpsdc">    580.68587220 </i>
    <i name="pawaedc">   -452.93491468 </i>
    <i name="eentropy">      0.00027165 </i>
    <i name="bandstr">     43.23320820 </i>
    <i name="atom">    214.15382826 </i>
    <i name="e_fr_energy">    -14.86707559 </i>
    <i name="e_wo_entrp">    -14.86734724 </i>
    <i name="e_0_energy">    -14.86716614 </i>
   </energy>
  </scstep>
  <structure>
   <crystal>
    <varray name="basis" >
     <v>       4.04336400       0.00000000       0.00000000 </v>
     <v>      -0.48520400       4.01414600       0.00000000 </v>
     <v>       0.00000000       0.00000000       4.04336400 </v>
    </varray>
    <i name="volume">     65.62643976 </i>
    <varray name="rec_basis" >
     <v>       0.24731882       0.02989430       0.00000000 </v>
     <v>       0.00000000       0.24911899       0.00000000 </v>
     <v>       0.00000000       0.00000000       0.24731882 </v>
    </varray>
   </crystal>
   <varray name="positions" >
    <v>       0.00000000       0.00000000       0.00000000 </v>
    <v>       0.00000000       0.50000000       0.50000000 </v>
    <v>       0.50000000       0.00000000       0.50000000 </v>
    <v>       0.50000000       0.50000000       0.00000000 </v>
   </varray>
  </structure>
  <varray name="forces" >
   <v>       0.00000000      -0.00000000      -0.00000000 </v>
   <v>      -0.00000000       0.00000000      -0.00000000 </v>
   <v>       0.00000000       0.00000000       0.00000000 </v>
   <v>      -0.00000000      -0.00000000      -0.00000000 </v>
  </varray>
  <varray name="stress" >
   <v>      16.67366226      46.98898681       0.00000000 </v>
   <v>      46.98898681      28.03310930       0.00000000 </v>
   <v>       0.00000000       0.00000000       3.58001896 </v>
  </varray>
  <energy>
   <i name="e_fr_energy">    -14.86707559 </i>
   <i name="e_wo_entrp">    -14.86716614 </i>
   <i name="e_0_energy">      0.00027165 </i>
  </energy>
  <time name="totalsc">    9.22    9.28</time>
  <eigenvalues>
   <array>
    <dimension dim="1">band</dimension>
    <dimension dim="2">kpoint</dimension>
    <dimension dim="3">spin</dimension>
    <field>eigene</field>
    <field>occ</field>
    <set>
     <set comment="spin 1">
      <set comment="kpoint 1">
       <r>   -3.1226    1.0000 </r>
       <r>    5.0852    1.0000 </r>
       <r>    5.1526    1.0000 </r>
       <r>    5.1526    1.0000 </r>
       <r>    6.3710    1.0000 </r>
       <r>    6.5551    1.0000 </r>
       <r>    6.5551    1.0000 </r>
       <r>   11.6749    0.0000 </r>
       <r>   12.6319    0.0000 </r>
       <r>   13.3397    0.0000 </r>
       <r>   13.3398    0.0000 </r>
       <r>   13.7227    0.0000 </r>
      </set>
      <set comment="kpoint 2">
       <r>   -3.0467    1.0000 </r>
       <r>    4.1857    1.0000 </r>
       <r>    5.1546    1.0000 </r>
       <r>    5.1970    1.0000 </r>
       <r>    6.4432    1.0000 </r>
       <r>    6.6510    1.0000 </r>
       <r>    7.6501    1.0000 </r>
       <r>   10.8293    0.0000 </r>
       <r>   12.0586    0.0000 </r>
       <r>   13.2087    0.0000 </r>
       <r>   13.3416    0.0000 </r>
       <r>   13.3726    0.0000 </r>
      </set>
      <set comment="kpoint 3">
       <r>   -2.8194    1.0000 </r>
       <r>    2.8698    1.0000 </r>
       <r>    5.3358    1.0000 </r>
       <r>    5.3630    1.0000 </r>
       <r>    6.6578    1.0000 </r>
       <r>    6.9307    1.0000 </r>
       <r>    9.3481   -0.0000 </r>
       <r>    9.7275    0.0000 </r>
       <r>   10.7336    0.0000 </r>
       <r>   12.1997    0.0000 </r>
       <r>   13.2226    0.0000 </r>
       <r>   13.4086    0.0000 </r>
      </set>
      <set comment="kpoint 4">
       <r>   -2.4413    1.0000 </r>
       <r>    1.6437    1.0000 </r>
       <r>    5.5811    1.0000 </r>
       <r>    5.7104    1.0000 </r>
       <r>    7.0070    1.0000 </r>
       <r>    7.3717    1.0000 </r>
       <r>    8.7236   -0.0000 </r>
       <r>    9.5455    0.0000 </r>
       <r>   11.1461    0.0000 </r>
       <r>   11.2001    0.0000 </r>
       <r>   12.1377    0.0000 </r>
       <r>   13.5916    0.0000 </r>
      </set>
      <set comment="kpoint 5">
       <r>   -1.9137    1.0000 </r>
       <r>    0.5443    1.0000 </r>
       <r>    5.9444    1.0000 </r>
       <r>    6.1972    1.0000 </r>
       <r>    7.4371    1.0000 </r>
       <r>    7.8864    1.0002 </r>
       <r>    7.9237    1.0062 </r>
       <r>    8.4976   -0.0000 </r>
       <r>   10.2106    0.0000 </r>
       <r>   11.0297    0.0000 </r>
       <r>   13.1185    0.0000 </r>
       <r>   13.9039    0.0000 </r>
      </set>
      <set comment="kpoint 6">
       <r>   -1.2385    1.0000 </r>
       <r>   -0.4181    1.0000 </r>
       <r>    6.4325    1.0000 </r>
       <r>    6.8238    1.0000 </r>
       <r>    7.0425    1.0000 </r>
       <r>    7.5905    1.0000 </r>
       <r>    8.0739   -0.0159 </r>
       <r>    8.3494   -0.0000 </r>
       <r>    9.6609    0.0000 </r>
       <r>   10.0858    0.0000 </r>
       <r>   14.3487    0.0000 </r>
       <r>   14.7049    0.0000 </r>
      </set>
      <set comment="kpoint 7">
       <r>   -2.9526    1.0000 </r>
       <r>    4.1001    1.0000 </r>
       <r>    4.1001    1.0000 </r>
       <r>    5.2407    1.0000 </r>
       <r>    6.5275    1.0000 </r>
       <r>    7.8977    1.0007 </r>
       <r>    7.8977    1.0007 </r>
       <r>   11.8224    0.0000 </r>
       <r>   11.9616    0.0000 </r>
       <r>   11.9616    0.0000 </r>
       <r>   12.1122    0.0000 </r>
       <r>   13.1796    0.0000 </r>
      </set>
      <set comment="kpoint 8">
       <r>   -2.7072    1.0000 </r>
       <r>    2.7899    1.0000 </r>
       <r>    4.1546    1.0000 </r>
       <r>    5.4657    1.0000 </r>
       <r>    6.7497    1.0000 </r>
       <r>    8.2745   -0.0000 </r>
       <r>    9.6026    0.0000 </r>
       <r>   10.6525    0.0000 </r>
       <r>   10.7721    0.0000 </r>
       <r>   11.9535    0.0000 </r>
       <r>   12.0047    0.0000 </r>
       <r>   12.1705    0.0000 </r>
      </set>
      <set comment="kpoint 9">
       <r>   -2.3113    1.0000 </r>
       <r>    1.5780    1.0000 </r>
       <r>    4.3506    1.0000 </r>
       <r>    5.8299    1.0000 </r>
       <r>    7.0907    1.0000 </r>
       <r>    8.7435   -0.0000 </r>
       <r>    9.4812    0.0000 </r>
       <r>    9.6590    0.0000 </r>
       <r>   11.0947    0.0000 </r>
       <r>   11.1748    0.0000 </r>
       <r>   11.4165    0.0000 </r>
       <r>   12.1873    0.0000 </r>
      </set>
      <set comment="kpoint 10">
       <r>   -1.7662    1.0000 </r>
       <r>    0.4948    1.0000 </r>
       <r>    4.6886    1.0000 </r>
       <r>    6.3335    1.0000 </r>
       <r>    7.4521    1.0000 </r>
       <r>    8.4502   -0.0000 </r>
       <r>    8.7540   -0.0000 </r>
       <r>    9.1015   -0.0000 </r>
       <r>   10.1879    0.0000 </r>
       <r>   10.5019    0.0000 </r>
       <r>   12.5086    0.0000 </r>
       <r>   13.0665    0.0000 </r>
      </set>
      <set comment="kpoint 11">
       <r>   -1.0740    1.0000 </r>
       <r>   -0.4506    1.0000 </r>
       <r>    5.1683    1.0000 </r>
       <r>    6.9769    1.0000 </r>
       <r>    7.2680    1.0000 </r>
       <r>    7.5599    1.0000 </r>
       <r>    8.5708   -0.0000 </r>
       <r>    8.7759   -0.0000 </r>
       <r>    9.4573    0.0000 </r>
       <r>   10.7576    0.0000 </r>
       <r>   12.9678    0.0000 </r>
       <r>   13.9864    0.0000 </r>
      </set>
      <set comment="kpoint 12">
       <r>   -1.2536    1.0000 </r>
       <r>   -0.2370    1.0000 </r>
       <r>    5.7885    1.0000 </r>
       <r>    6.5590    1.0000 </r>
       <r>    6.8100    1.0000 </r>
       <r>    7.7606    1.0000 </r>
       <r>    8.1311   -0.0063 </r>
       <r>    8.5273   -0.0000 </r>
       <r>    9.4989    0.0000 </r>
       <r>   11.5883    0.0000 </r>
       <r>   13.5638    0.0000 </r>
       <r>   14.6575    0.0000 </r>
      </set>
      <set comment="kpoint 13">
       <r>   -1.9109    1.0000 </r>
       <r>    0.7412    1.0000 </r>
       <r>    5.8573    1.0000 </r>
       <r>    6.2001    1.0000 </r>
       <r>    6.5454    1.0000 </r>
       <r>    7.5382    1.0000 </r>
       <r>    8.0984   -0.0311 </r>
       <r>    8.6848   -0.0000 </r>
       <r>   10.3107    0.0000 </r>
       <r>   12.6226    0.0000 </r>
       <r>   13.0308    0.0000 </r>
       <r>   13.8552    0.0000 </r>
      </set>
      <set comment="kpoint 14">
       <r>   -2.4204    1.0000 </r>
       <r>    1.8551    1.0000 </r>
       <r>    5.2527    1.0000 </r>
       <r>    5.7300    1.0000 </r>
       <r>    7.0378    1.0000 </r>
       <r>    7.4624    1.0000 </r>
       <r>    7.7681    1.0000 </r>
       <r>    9.7498    0.0000 </r>
       <r>   11.0701    0.0000 </r>
       <r>   11.3069    0.0000 </r>
       <r>   13.1943    0.0000 </r>
       <r>   13.7682    0.0000 </r>
      </set>
      <set comment="kpoint 15">
       <r>   -2.7802    1.0000 </r>
       <r>    3.0932    1.0000 </r>
       <r>    4.7667    1.0000 </r>
       <r>    5.3992    1.0000 </r>
       <r>    6.7039    1.0000 </r>
       <r>    7.5818    1.0000 </r>
       <r>    8.4773   -0.0000 </r>
       <r>    9.2192   -0.0000 </r>
       <r>   10.9549    0.0000 </r>
       <r>   12.3788    0.0000 </r>
       <r>   12.6746    0.0000 </r>
       <r>   13.6545    0.0000 </r>
      </set>
      <set comment="kpoint 16">
       <r>   -2.9892    1.0000 </r>
       <r>    4.4091    1.0000 </r>
       <r>    4.4091    1.0000 </r>
       <r>    5.2074    1.0000 </r>
       <r>    6.5019    1.0000 </r>
       <r>    7.5431    1.0000 </r>
       <r>    7.5431    1.0000 </r>
       <r>    9.6175    0.0000 </r>
       <r>   12.2961    0.0000 </r>
       <r>   12.2961    0.0000 </r>
       <r>   13.3687    0.0000 </r>
       <r>   13.3687    0.0000 </r>
      </set>
      <set comment="kpoint 17">
       <r>   -2.4440    1.0000 </r>
       <r>    2.8545    1.0000 </r>
       <r>    2.8545    1.0000 </r>
       <r>    5.7075    1.0000 </r>
       <r>    6.9635    1.0000 </r>
       <r>    9.9469    0.0000 </r>
       <r>    9.9469    0.0000 </r>
       <r>   10.0352    0.0000 </r>
       <r>   10.7113    0.0000 </r>
       <r>   10.7113    0.0000 </r>
       <r>   12.2676    0.0000 </r>
       <r>   12.3273    0.0000 </r>
      </set>
      <set comment="kpoint 18">
       <r>   -2.0308    1.0000 </r>
       <r>    1.6587    1.0000 </r>
       <r>    3.0639    1.0000 </r>
       <r>    6.0885    1.0000 </r>
       <r>    7.2205    1.0000 </r>
       <r>    8.9196   -0.0000 </r>
       <r>    9.5566    0.0000 </r>
       <r>   10.1842    0.0000 </r>
       <r>   10.9098    0.0000 </r>
       <r>   11.5186    0.0000 </r>
       <r>   11.5901    0.0000 </r>
       <r>   11.9917    0.0000 </r>
      </set>
      <set comment="kpoint 19">
       <r>   -1.4690    1.0000 </r>
       <r>    0.5929    1.0000 </r>
       <r>    3.4178    1.0000 </r>
       <r>    6.6091    1.0000 </r>
       <r>    7.0483    1.0000 </r>
       <r>    8.4617   -0.0000 </r>
       <r>    8.5424   -0.0000 </r>
       <r>    9.7619    0.0000 </r>
       <r>   11.2476    0.0000 </r>
       <r>   11.3020    0.0000 </r>
       <r>   11.7265    0.0000 </r>
       <r>   12.4086    0.0000 </r>
      </set>
      <set comment="kpoint 20">
       <r>   -0.7606    1.0000 </r>
       <r>   -0.3344    1.0000 </r>
       <r>    3.9155    1.0000 </r>
       <r>    6.2305    1.0000 </r>
       <r>    7.2696    1.0000 </r>
       <r>    7.6687    1.0000 </r>
       <r>    8.9073   -0.0000 </r>
       <r>    9.0121   -0.0000 </r>
       <r>   10.6452    0.0000 </r>
       <r>   11.7242    0.0000 </r>
       <r>   12.4342    0.0000 </r>
       <r>   13.0066    0.0000 </r>
      </set>
      <set comment="kpoint 21">
       <r>   -1.1190    1.0000 </r>
       <r>    0.0918    1.0000 </r>
       <r>    4.5557    1.0000 </r>
       <r>    5.3673    1.0000 </r>
       <r>    6.9354    1.0000 </r>
       <r>    8.0704   -0.0034 </r>
       <r>    8.3010   -0.0000 </r>
       <r>    9.6377    0.0000 </r>
       <r>   10.1203    0.0000 </r>
       <r>   12.3391    0.0000 </r>
       <r>   13.2446    0.0000 </r>
       <r>   13.3560    0.0000 </r>
      </set>
      <set comment="kpoint 22">
       <r>   -1.7578    1.0000 </r>
       <r>    1.0844    1.0000 </r>
       <r>    4.6025    1.0000 </r>
       <r>    5.3360    1.0000 </r>
       <r>    6.3422    1.0000 </r>
       <r>    7.7004    1.0000 </r>
       <r>    9.0119   -0.0000 </r>
       <r>    9.6449    0.0000 </r>
       <r>   10.6051    0.0000 </r>
       <r>   12.4618    0.0000 </r>
       <r>   13.0192    0.0000 </r>
       <r>   13.0912    0.0000 </r>
      </set>
      <set comment="kpoint 23">
       <r>   -2.2485    1.0000 </r>
       <r>    2.2112    1.0000 </r>
       <r>    3.9631    1.0000 </r>
       <r>    5.8886    1.0000 </r>
       <r>    6.2520    1.0000 </r>
       <r>    7.2319    1.0000 </r>
       <r>    9.3692   -0.0000 </r>
       <r>   10.0942    0.0000 </r>
       <r>   11.0623    0.0000 </r>
       <r>   11.6209    0.0000 </r>
       <r>   11.8190    0.0000 </r>
       <r>   13.1484    0.0000 </r>
      </set>
      <set comment="kpoint 24">
       <r>   -2.5897    1.0000 </r>
       <r>    3.4585    1.0000 </r>
       <r>    3.4585    1.0000 </r>
       <r>    5.5743    1.0000 </r>
       <r>    6.8864    1.0000 </r>
       <r>    7.3151    1.0000 </r>
       <r>    9.2254   -0.0000 </r>
       <r>    9.2254   -0.0000 </r>
       <r>   11.3167    0.0000 </r>
       <r>   11.3167    0.0000 </r>
       <r>   12.6967    0.0000 </r>
       <r>   12.6967    0.0000 </r>
      </set>
      <set comment="kpoint 25">
       <r>   -1.6010    1.0000 </r>
       <r>    1.8857    1.0000 </r>
       <r>    1.8857    1.0000 </r>
       <r>    6.4865    1.0000 </r>
       <r>    6.9448    1.0000 </r>
       <r>    8.3536   -0.0000 </r>
       <r>    9.7717    0.0000 </r>
       <r>    9.7717    0.0000 </r>
       <r>   10.9817    0.0000 </r>
       <r>   10.9817    0.0000 </r>
       <r>   12.9365    0.0000 </r>
       <r>   12.9384    0.0000 </r>
      </set>
      <set comment="kpoint 26">
       <r>   -1.0232    1.0000 </r>
       <r>    0.8386    1.0000 </r>
       <r>    2.2587    1.0000 </r>
       <r>    6.0138    1.0000 </r>
       <r>    7.0242    1.0000 </r>
       <r>    8.6664   -0.0000 </r>
       <r>    8.7741   -0.0000 </r>
       <r>   10.1263    0.0000 </r>
       <r>   10.1322    0.0000 </r>
       <r>   11.4730    0.0000 </r>
       <r>   12.8534    0.0000 </r>
       <r>   13.5264    0.0000 </r>
      </set>
      <set comment="kpoint 27">
       <r>   -0.2996    1.0000 </r>
       <r>   -0.0697    1.0000 </r>
       <r>    2.7767    1.0000 </r>
       <r>    5.0209    1.0000 </r>
       <r>    7.7020    1.0000 </r>
       <r>    7.9171    1.0038 </r>
       <r>    9.3007   -0.0000 </r>
       <r>    9.3126   -0.0000 </r>
       <r>   10.6202    0.0000 </r>
       <r>   12.0128    0.0000 </r>
       <r>   12.3196    0.0000 </r>
       <r>   12.8750    0.0000 </r>
      </set>
      <set comment="kpoint 28">
       <r>   -0.8351    1.0000 </r>
       <r>    0.5670    1.0000 </r>
       <r>    3.4382    1.0000 </r>
       <r>    4.1225    1.0000 </r>
       <r>    7.2003    1.0000 </r>
       <r>    8.5202   -0.0000 </r>
       <r>    8.5957   -0.0000 </r>
       <r>   10.1032    0.0000 </r>
       <r>   11.2530    0.0000 </r>
       <r>   11.8274    0.0000 </r>
       <r>   11.9696    0.0000 </r>
       <r>   12.6599    0.0000 </r>
      </set>
      <set comment="kpoint 29">
       <r>   -1.4546    1.0000 </r>
       <r>    1.5725    1.0000 </r>
       <r>    3.3488    1.0000 </r>
       <r>    4.2409    1.0000 </r>
       <r>    6.6235    1.0000 </r>
       <r>    8.0037    0.8567 </r>
       <r>    9.4792    0.0000 </r>
       <r>   11.0330    0.0000 </r>
       <r>   11.2041    0.0000 </r>
       <r>   11.4488    0.0000 </r>
       <r>   12.0244    0.0000 </r>
       <r>   12.6640    0.0000 </r>
      </set>
      <set comment="kpoint 30">
       <r>   -1.9263    1.0000 </r>
       <r>    2.7100    1.0000 </r>
       <r>    2.7100    1.0000 </r>
       <r>    5.1813    1.0000 </r>
       <r>    6.1864    1.0000 </r>
       <r>    7.5470    1.0000 </r>
       <r>   10.5790    0.0000 </r>
       <r>   10.5790    0.0000 </r>
       <r>   11.1846    0.0000 </r>
       <r>   11.1846    0.0000 </r>
       <r>   12.0760    0.0000 </r>
       <r>   12.0760    0.0000 </r>
      </set>
      <set comment="kpoint 31">
       <r>   -0.4303    1.0000 </r>
       <r>    1.2313    1.0000 </r>
       <r>    1.2313    1.0000 </r>
       <r>    4.9020    1.0000 </r>
       <r>    7.5792    1.0000 </r>
       <r>    9.1454   -0.0000 </r>
       <r>    9.1454   -0.0000 </r>
       <r>    9.1763   -0.0000 </r>
       <r>   10.5560    0.0000 </r>
       <r>   10.5560    0.0000 </r>
       <r>   12.7516    0.0000 </r>
       <r>   14.0423    0.0000 </r>
      </set>
      <set comment="kpoint 32">
       <r>    0.3074    1.0000 </r>
       <r>    0.3429    1.0000 </r>
       <r>    1.7700    1.0000 </r>
       <r>    3.8769    1.0000 </r>
       <r>    8.2744   -0.0000 </r>
       <r>    8.3049   -0.0000 </r>
       <r>    9.6561    0.0000 </r>
       <r>    9.7311    0.0000 </r>
       <r>    9.8595    0.0000 </r>
       <r>   11.0923    0.0000 </r>
       <r>   11.7231    0.0000 </r>
       <r>   13.1884    0.0000 </r>
      </set>
      <set comment="kpoint 33">
       <r>   -0.4026    1.0000 </r>
       <r>    1.1868    1.0000 </r>
       <r>    2.4529    1.0000 </r>
       <r>    2.9734    1.0000 </r>
       <r>    7.6046    1.0000 </r>
       <r>    9.0238   -0.0000 </r>
       <r>    9.1102   -0.0000 </r>
       <r>   10.3064    0.0000 </r>
       <r>   10.6838    0.0000 </r>
       <r>   10.8347    0.0000 </r>
       <r>   11.7514    0.0000 </r>
       <r>   12.3484    0.0000 </r>
      </set>
      <set comment="kpoint 34">
       <r>   -1.0025    1.0000 </r>
       <r>    2.2033    1.0000 </r>
       <r>    2.2033    1.0000 </r>
       <r>    3.2777    1.0000 </r>
       <r>    7.0442    1.0000 </r>
       <r>    8.4459   -0.0000 </r>
       <r>   10.0867    0.0000 </r>
       <r>   10.0867    0.0000 </r>
       <r>   11.0959    0.0000 </r>
       <r>   11.6290    0.0000 </r>
       <r>   11.6290    0.0000 </r>
       <r>   12.5312    0.0000 </r>
      </set>
      <set comment="kpoint 35">
       <r>    0.9021    1.0000 </r>
       <r>    0.9021    1.0000 </r>
       <r>    1.0579    1.0000 </r>
       <r>    2.8475    1.0000 </r>
       <r>    8.8323   -0.0000 </r>
       <r>    8.8323   -0.0000 </r>
       <r>    8.9872   -0.0000 </r>
       <r>   10.2781    0.0000 </r>
       <r>   10.2781    0.0000 </r>
       <r>   10.5637    0.0000 </r>
       <r>   10.7115    0.0000 </r>
       <r>   12.2392    0.0000 </r>
      </set>
      <set comment="kpoint 36">
       <r>    0.1771    1.0000 </r>
       <r>    1.6063    1.0000 </r>
       <r>    1.9484    1.0000 </r>
       <r>    1.9484    1.0000 </r>
       <r>    8.1485   -0.0016 </r>
       <r>    9.4994    0.0000 </r>
       <r>    9.5859    0.0000 </r>
       <r>    9.8405    0.0000 </r>
       <r>    9.8405    0.0000 </r>
       <r>   10.9535    0.0000 </r>
       <r>   11.3990    0.0000 </r>
       <r>   11.3990    0.0000 </r>
      </set>
      <set comment="kpoint 37">
       <r>   -3.0478    1.0000 </r>
       <r>    4.1002    1.0000 </r>
       <r>    5.2198    1.0000 </r>
       <r>    5.2198    1.0000 </r>
       <r>    6.6273    1.0000 </r>
       <r>    6.6273    1.0000 </r>
       <r>    7.4842    1.0000 </r>
       <r>   11.7395    0.0000 </r>
       <r>   12.0720    0.0000 </r>
       <r>   12.0720    0.0000 </r>
       <r>   12.7066    0.0000 </r>
       <r>   13.2431    0.0000 </r>
      </set>
      <set comment="kpoint 38">
       <r>   -2.9720    1.0000 </r>
       <r>    4.1715    1.0000 </r>
       <r>    4.2555    1.0000 </r>
       <r>    5.2642    1.0000 </r>
       <r>    6.7221    1.0000 </r>
       <r>    7.5540    1.0000 </r>
       <r>    7.7185    1.0000 </r>
       <r>   10.8974    0.0000 </r>
       <r>   11.1264    0.0000 </r>
       <r>   12.1199    0.0000 </r>
       <r>   13.3310    0.0000 </r>
       <r>   13.4438    0.0000 </r>
      </set>
      <set comment="kpoint 39">
       <r>   -2.7448    1.0000 </r>
       <r>    2.9410    1.0000 </r>
       <r>    4.3851    1.0000 </r>
       <r>    5.4031    1.0000 </r>
       <r>    6.9969    1.0000 </r>
       <r>    7.7609    1.0000 </r>
       <r>    9.4095    0.0000 </r>
       <r>    9.7976    0.0000 </r>
       <r>    9.8693    0.0000 </r>
       <r>   12.2719    0.0000 </r>
       <r>   13.1490    0.0000 </r>
       <r>   13.2933    0.0000 </r>
      </set>
      <set comment="kpoint 40">
       <r>   -2.3669    1.0000 </r>
       <r>    1.7158    1.0000 </r>
       <r>    4.7402    1.0000 </r>
       <r>    5.6481    1.0000 </r>
       <r>    7.4096    1.0000 </r>
       <r>    8.0896   -0.0354 </r>
       <r>    8.7362   -0.0000 </r>
       <r>    8.8024   -0.0000 </r>
       <r>   11.2277    0.0000 </r>
       <r>   12.1050    0.0000 </r>
       <r>   12.2131    0.0000 </r>
       <r>   12.5683    0.0000 </r>
      </set>
      <set comment="kpoint 41">
       <r>   -1.8396    1.0000 </r>
       <r>    0.6171    1.0000 </r>
       <r>    5.2350    1.0000 </r>
       <r>    6.0090    1.0000 </r>
       <r>    7.4536    1.0000 </r>
       <r>    7.8745    1.0001 </r>
       <r>    8.2426   -0.0000 </r>
       <r>    8.5868   -0.0000 </r>
       <r>   11.1213    0.0000 </r>
       <r>   11.1344    0.0000 </r>
       <r>   12.6473    0.0000 </r>
       <r>   13.4971    0.0000 </r>
      </set>
      <set comment="kpoint 42">
       <r>   -1.1648    1.0000 </r>
       <r>   -0.3448    1.0000 </r>
       <r>    5.8639    1.0000 </r>
       <r>    6.4451    1.0000 </r>
       <r>    6.6982    1.0000 </r>
       <r>    7.1376    1.0000 </r>
       <r>    8.7974   -0.0000 </r>
       <r>    9.0116   -0.0000 </r>
       <r>   10.2801    0.0000 </r>
       <r>   10.3588    0.0000 </r>
       <r>   13.2499    0.0000 </r>
       <r>   13.8759    0.0000 </r>
      </set>
      <set comment="kpoint 43">
       <r>   -2.8779    1.0000 </r>
       <r>    4.1702    1.0000 </r>
       <r>    4.1702    1.0000 </r>
       <r>    4.2593    1.0000 </r>
       <r>    7.6347    1.0000 </r>
       <r>    7.9608    1.0339 </r>
       <r>    7.9608    1.0339 </r>
       <r>   11.0559    0.0000 </r>
       <r>   11.0559    0.0000 </r>
       <r>   11.8870    0.0000 </r>
       <r>   12.1871    0.0000 </r>
       <r>   13.9179    0.0000 </r>
      </set>
      <set comment="kpoint 44">
       <r>   -2.6326    1.0000 </r>
       <r>    2.8613    1.0000 </r>
       <r>    4.2249    1.0000 </r>
       <r>    4.4890    1.0000 </r>
       <r>    7.8461    1.0000 </r>
       <r>    8.3108   -0.0000 </r>
       <r>    9.6359    0.0000 </r>
       <r>    9.8364    0.0000 </r>
       <r>   10.8468    0.0000 </r>
       <r>   11.1560    0.0000 </r>
       <r>   12.0241    0.0000 </r>
       <r>   13.1058    0.0000 </r>
      </set>
      <set comment="kpoint 45">
       <r>   -2.2370    1.0000 </r>
       <r>    1.6502    1.0000 </r>
       <r>    4.4209    1.0000 </r>
       <r>    4.8593    1.0000 </r>
       <r>    8.1534   -0.0011 </r>
       <r>    8.3706   -0.0000 </r>
       <r>    9.1292   -0.0000 </r>
       <r>    9.7564    0.0000 </r>
       <r>   11.0307    0.0000 </r>
       <r>   11.1715    0.0000 </r>
       <r>   11.8186    0.0000 </r>
       <r>   12.0852    0.0000 </r>
      </set>
      <set comment="kpoint 46">
       <r>   -1.6922    1.0000 </r>
       <r>    0.5676    1.0000 </r>
       <r>    4.7587    1.0000 </r>
       <r>    5.3664    1.0000 </r>
       <r>    7.4952    1.0000 </r>
       <r>    8.2377   -0.0000 </r>
       <r>    9.1033   -0.0000 </r>
       <r>    9.5420    0.0000 </r>
       <r>   10.2872    0.0000 </r>
       <r>   11.2099    0.0000 </r>
       <r>   11.5222    0.0000 </r>
       <r>   13.5668    0.0000 </r>
      </set>
      <set comment="kpoint 47">
       <r>   -1.0003    1.0000 </r>
       <r>   -0.3773    1.0000 </r>
       <r>    5.2375    1.0000 </r>
       <r>    5.9941    1.0000 </r>
       <r>    6.6194    1.0000 </r>
       <r>    7.5509    1.0000 </r>
       <r>    9.1660   -0.0000 </r>
       <r>    9.7020    0.0000 </r>
       <r>    9.8290    0.0000 </r>
       <r>   10.9690    0.0000 </r>
       <r>   12.0136    0.0000 </r>
       <r>   14.3881    0.0000 </r>
      </set>
      <set comment="kpoint 48">
       <r>   -1.1799    1.0000 </r>
       <r>   -0.1638    1.0000 </r>
       <r>    5.8078    1.0000 </r>
       <r>    5.9151    1.0000 </r>
       <r>    6.4579    1.0000 </r>
       <r>    7.0705    1.0000 </r>
       <r>    8.6753   -0.0000 </r>
       <r>    9.1803   -0.0000 </r>
       <r>   10.4079    0.0000 </r>
       <r>   11.6817    0.0000 </r>
       <r>   12.6238    0.0000 </r>
       <r>   13.5260    0.0000 </r>
      </set>
      <set comment="kpoint 49">
       <r>   -1.8368    1.0000 </r>
       <r>    0.8138    1.0000 </r>
       <r>    5.2412    1.0000 </r>
       <r>    5.9097    1.0000 </r>
       <r>    6.6218    1.0000 </r>
       <r>    7.7990    1.0000 </r>
       <r>    8.2245   -0.0000 </r>
       <r>    8.6121   -0.0000 </r>
       <r>   11.2804    0.0000 </r>
       <r>   12.6982    0.0000 </r>
       <r>   12.7537    0.0000 </r>
       <r>   13.1413    0.0000 </r>
      </set>
      <set comment="kpoint 50">
       <r>   -2.3460    1.0000 </r>
       <r>    1.9270    1.0000 </r>
       <r>    4.7620    1.0000 </r>
       <r>    5.3175    1.0000 </r>
       <r>    7.5127    1.0000 </r>
       <r>    7.8340    1.0000 </r>
       <r>    8.1513   -0.0013 </r>
       <r>    8.8968   -0.0000 </r>
       <r>   11.1289    0.0000 </r>
       <r>   12.1892    0.0000 </r>
       <r>   12.2813    0.0000 </r>
       <r>   13.8385    0.0000 </r>
      </set>
      <set comment="kpoint 51">
       <r>   -2.7056    1.0000 </r>
       <r>    3.1641    1.0000 </r>
       <r>    4.4231    1.0000 </r>
       <r>    4.8347    1.0000 </r>
       <r>    7.6520    1.0000 </r>
       <r>    7.8053    1.0000 </r>
       <r>    8.5492   -0.0000 </r>
       <r>    9.2862   -0.0000 </r>
       <r>   10.0734    0.0000 </r>
       <r>   11.6954    0.0000 </r>
       <r>   13.3299    0.0000 </r>
       <r>   14.0318    0.0000 </r>
      </set>
      <set comment="kpoint 52">
       <r>   -2.9145    1.0000 </r>
       <r>    4.2261    1.0000 </r>
       <r>    4.4783    1.0000 </r>
       <r>    4.4783    1.0000 </r>
       <r>    7.6111    1.0000 </r>
       <r>    7.6132    1.0000 </r>
       <r>    7.6132    1.0000 </r>
       <r>    9.6869    0.0000 </r>
       <r>   11.3413    0.0000 </r>
       <r>   11.3413    0.0000 </r>
       <r>   13.9004    0.0000 </r>
       <r>   13.9004    0.0000 </r>
      </set>
      <set comment="kpoint 53">
       <r>   -2.3696    1.0000 </r>
       <r>    2.9259    1.0000 </r>
       <r>    2.9259    1.0000 </r>
       <r>    4.7339    1.0000 </r>
       <r>    8.0335    0.4005 </r>
       <r>    9.5812    0.0000 </r>
       <r>    9.5812    0.0000 </r>
       <r>   10.1376    0.0000 </r>
       <r>   10.3495    0.0000 </r>
       <r>   10.3495    0.0000 </r>
       <r>   12.3299    0.0000 </r>
       <r>   13.2139    0.0000 </r>
      </set>
      <set comment="kpoint 54">
       <r>   -1.9567    1.0000 </r>
       <r>    1.7309    1.0000 </r>
       <r>    3.1352    1.0000 </r>
       <r>    5.1164    1.0000 </r>
       <r>    8.1044   -0.0259 </r>
       <r>    8.6041   -0.0000 </r>
       <r>    9.2061   -0.0000 </r>
       <r>    9.9520    0.0000 </r>
       <r>   10.6283    0.0000 </r>
       <r>   11.9773    0.0000 </r>
       <r>   12.0586    0.0000 </r>
       <r>   12.2835    0.0000 </r>
      </set>
      <set comment="kpoint 55">
       <r>   -1.3952    1.0000 </r>
       <r>    0.6657    1.0000 </r>
       <r>    3.4890    1.0000 </r>
       <r>    5.6230    1.0000 </r>
       <r>    7.4037    1.0000 </r>
       <r>    7.6112    1.0000 </r>
       <r>    9.2893   -0.0000 </r>
       <r>   10.3199    0.0000 </r>
       <r>   10.6748    0.0000 </r>
       <r>   11.3714    0.0000 </r>
       <r>   11.9370    0.0000 </r>
       <r>   13.3270    0.0000 </r>
      </set>
      <set comment="kpoint 56">
       <r>   -0.6871    1.0000 </r>
       <r>   -0.2612    1.0000 </r>
       <r>    3.9863    1.0000 </r>
       <r>    6.0482    1.0000 </r>
       <r>    6.6785    1.0000 </r>
       <r>    6.7366    1.0000 </r>
       <r>    9.8708    0.0000 </r>
       <r>   10.0466    0.0000 </r>
       <r>   10.7214    0.0000 </r>
       <r>   10.8097    0.0000 </r>
       <r>   12.5267    0.0000 </r>
       <r>   13.2187    0.0000 </r>
      </set>
      <set comment="kpoint 57">
       <r>   -1.0453    1.0000 </r>
       <r>    0.1648    1.0000 </r>
       <r>    4.6257    1.0000 </r>
       <r>    5.4179    1.0000 </r>
       <r>    5.9957    1.0000 </r>
       <r>    7.2244    1.0000 </r>
       <r>    9.3622   -0.0000 </r>
       <r>   10.1286    0.0000 </r>
       <r>   10.6897    0.0000 </r>
       <r>   11.4320    0.0000 </r>
       <r>   12.3165    0.0000 </r>
       <r>   13.4309    0.0000 </r>
      </set>
      <set comment="kpoint 58">
       <r>   -1.6838    1.0000 </r>
       <r>    1.1568    1.0000 </r>
       <r>    4.6682    1.0000 </r>
       <r>    5.3530    1.0000 </r>
       <r>    5.4450    1.0000 </r>
       <r>    8.1467   -0.0019 </r>
       <r>    8.7769   -0.0000 </r>
       <r>    9.7252    0.0000 </r>
       <r>   11.5483    0.0000 </r>
       <r>   11.5851    0.0000 </r>
       <r>   12.1877    0.0000 </r>
       <r>   13.0871    0.0000 </r>
      </set>
      <set comment="kpoint 59">
       <r>   -2.1743    1.0000 </r>
       <r>    2.2827    1.0000 </r>
       <r>    4.0322    1.0000 </r>
       <r>    4.9251    1.0000 </r>
       <r>    6.3265    1.0000 </r>
       <r>    8.3188   -0.0000 </r>
       <r>    9.2135   -0.0000 </r>
       <r>    9.4498    0.0000 </r>
       <r>   10.9168    0.0000 </r>
       <r>   11.1283    0.0000 </r>
       <r>   12.6005    0.0000 </r>
       <r>   13.0743    0.0000 </r>
      </set>
      <set comment="kpoint 60">
       <r>   -2.5152    1.0000 </r>
       <r>    3.5288    1.0000 </r>
       <r>    3.5288    1.0000 </r>
       <r>    4.6033    1.0000 </r>
       <r>    7.3720    1.0000 </r>
       <r>    7.9987    0.9094 </r>
       <r>    9.2938   -0.0000 </r>
       <r>    9.2938   -0.0000 </r>
       <r>   10.4243    0.0000 </r>
       <r>   10.4243    0.0000 </r>
       <r>   13.6422    0.0000 </r>
       <r>   13.6422    0.0000 </r>
      </set>
      <set comment="kpoint 61">
       <r>   -1.5270    1.0000 </r>
       <r>    1.9578    1.0000 </r>
       <r>    1.9578    1.0000 </r>
       <r>    5.4988    1.0000 </r>
       <r>    7.3090    1.0000 </r>
       <r>    8.8474   -0.0000 </r>
       <r>    8.8474   -0.0000 </r>
       <r>    9.1759   -0.0000 </r>
       <r>   11.8912    0.0000 </r>
       <r>   11.8912    0.0000 </r>
       <r>   13.0741    0.0000 </r>
       <r>   13.1354    0.0000 </r>
      </set>
      <set comment="kpoint 62">
       <r>   -0.9496    1.0000 </r>
       <r>    0.9113    1.0000 </r>
       <r>    2.3306    1.0000 </r>
       <r>    5.8160    1.0000 </r>
       <r>    6.4465    1.0000 </r>
       <r>    7.8550    1.0000 </r>
       <r>    9.2151   -0.0000 </r>
       <r>    9.6402    0.0000 </r>
       <r>   11.1520    0.0000 </r>
       <r>   12.4814    0.0000 </r>
       <r>   12.9199    0.0000 </r>
       <r>   13.0067    0.0000 </r>
      </set>
      <set comment="kpoint 63">
       <r>   -0.2264    1.0000 </r>
       <r>    0.0034    1.0000 </r>
       <r>    2.8483    1.0000 </r>
       <r>    5.0720    1.0000 </r>
       <r>    6.8517    1.0000 </r>
       <r>    6.9929    1.0000 </r>
       <r>    9.7176    0.0000 </r>
       <r>   10.2971    0.0000 </r>
       <r>   10.3562    0.0000 </r>
       <r>   11.9790    0.0000 </r>
       <r>   12.3873    0.0000 </r>
       <r>   13.0270    0.0000 </r>
      </set>
      <set comment="kpoint 64">
       <r>   -0.7616    1.0000 </r>
       <r>    0.6397    1.0000 </r>
       <r>    3.5093    1.0000 </r>
       <r>    4.1889    1.0000 </r>
       <r>    6.2670    1.0000 </r>
       <r>    7.6525    1.0000 </r>
       <r>    9.6541    0.0000 </r>
       <r>   10.3564    0.0000 </r>
       <r>   11.0832    0.0000 </r>
       <r>   11.0984    0.0000 </r>
       <r>   11.8967    0.0000 </r>
       <r>   13.6703    0.0000 </r>
      </set>
      <set comment="kpoint 65">
       <r>   -1.3808    1.0000 </r>
       <r>    1.6445    1.0000 </r>
       <r>    3.4185    1.0000 </r>
       <r>    4.3112    1.0000 </r>
       <r>    5.6804    1.0000 </r>
       <r>    8.6090   -0.0000 </r>
       <r>    9.0747   -0.0000 </r>
       <r>   10.3235    0.0000 </r>
       <r>   11.1309    0.0000 </r>
       <r>   11.5064    0.0000 </r>
       <r>   12.0343    0.0000 </r>
       <r>   13.1933    0.0000 </r>
      </set>
      <set comment="kpoint 66">
       <r>   -1.8522    1.0000 </r>
       <r>    2.7810    1.0000 </r>
       <r>    2.7810    1.0000 </r>
       <r>    5.1971    1.0000 </r>
       <r>    5.2880    1.0000 </r>
       <r>    8.6282   -0.0000 </r>
       <r>    9.7024    0.0000 </r>
       <r>    9.7024    0.0000 </r>
       <r>   11.2531    0.0000 </r>
       <r>   11.2531    0.0000 </r>
       <r>   12.0385    0.0000 </r>
       <r>   13.0565    0.0000 </r>
      </set>
      <set comment="kpoint 67">
       <r>   -0.3570    1.0000 </r>
       <r>    1.3038    1.0000 </r>
       <r>    1.3038    1.0000 </r>
       <r>    4.9533    1.0000 </r>
       <r>    6.7268    1.0000 </r>
       <r>    8.2353   -0.0000 </r>
       <r>    8.2353   -0.0000 </r>
       <r>   10.1754    0.0000 </r>
       <r>   11.5831    0.0000 </r>
       <r>   11.5831    0.0000 </r>
       <r>   11.8631    0.0000 </r>
       <r>   14.1071    0.0000 </r>
      </set>
      <set comment="kpoint 68">
       <r>    0.3802    1.0000 </r>
       <r>    0.4158    1.0000 </r>
       <r>    1.8421    1.0000 </r>
       <r>    3.9438    1.0000 </r>
       <r>    7.3888    1.0000 </r>
       <r>    7.4039    1.0000 </r>
       <r>    8.7537   -0.0000 </r>
       <r>   10.7706    0.0000 </r>
       <r>   10.8452    0.0000 </r>
       <r>   10.8601    0.0000 </r>
       <r>   12.1151    0.0000 </r>
       <r>   14.1269    0.0000 </r>
      </set>
      <set comment="kpoint 69">
       <r>   -0.3294    1.0000 </r>
       <r>    1.2590    1.0000 </r>
       <r>    2.5246    1.0000 </r>
       <r>    3.0435    1.0000 </r>
       <r>    6.6796    1.0000 </r>
       <r>    8.2388   -0.0000 </r>
       <r>    9.4102    0.0000 </r>
       <r>    9.9611    0.0000 </r>
       <r>   10.0749    0.0000 </r>
       <r>   11.6795    0.0000 </r>
       <r>   12.7678    0.0000 </r>
       <r>   13.3344    0.0000 </r>
      </set>
      <set comment="kpoint 70">
       <r>   -0.9289    1.0000 </r>
       <r>    2.2747    1.0000 </r>
       <r>    2.2747    1.0000 </r>
       <r>    3.3490    1.0000 </r>
       <r>    6.1096    1.0000 </r>
       <r>    9.2147   -0.0000 </r>
       <r>    9.2147   -0.0000 </r>
       <r>    9.5078    0.0000 </r>
       <r>   10.2034    0.0000 </r>
       <r>   12.6182    0.0000 </r>
       <r>   12.6182    0.0000 </r>
       <r>   13.4223    0.0000 </r>
      </set>
      <set comment="kpoint 71">
       <r>    0.9747    1.0000 </r>
       <r>    0.9747    1.0000 </r>
       <r>    1.1302    1.0000 </r>
       <r>    2.9177    1.0000 </r>
       <r>    7.9243    1.0065 </r>
       <r>    7.9243    1.0065 </r>
       <r>    8.1150   -0.0164 </r>
       <r>    9.8395    0.0000 </r>
       <r>   11.3101    0.0000 </r>
       <r>   11.3101    0.0000 </r>
       <r>   11.5610    0.0000 </r>
       <r>   13.2270    0.0000 </r>
      </set>
      <set comment="kpoint 72">
       <r>    0.2500    1.0000 </r>
       <r>    1.6785    1.0000 </r>
       <r>    2.0199    1.0000 </r>
       <r>    2.0199    1.0000 </r>
       <r>    7.2324    1.0000 </r>
       <r>    8.5986   -0.0000 </r>
       <r>    8.9693   -0.0000 </r>
       <r>    8.9693   -0.0000 </r>
       <r>   10.6277    0.0000 </r>
       <r>   11.9773    0.0000 </r>
       <r>   12.3908    0.0000 </r>
       <r>   12.3908    0.0000 </r>
      </set>
      <set comment="kpoint 73">
       <r>   -2.8237    1.0000 </r>
       <r>    2.7925    1.0000 </r>
       <r>    5.4208    1.0000 </r>
       <r>    5.4208    1.0000 </r>
       <r>    6.8425    1.0000 </r>
       <r>    6.8425    1.0000 </r>
       <r>    9.1753   -0.0000 </r>
       <r>   10.7728    0.0000 </r>
       <r>   10.7728    0.0000 </r>
       <r>   11.9333    0.0000 </r>
       <r>   12.2389    0.0000 </r>
       <r>   12.2389    0.0000 </r>
      </set>
      <set comment="kpoint 74">
       <r>   -2.7480    1.0000 </r>
       <r>    2.8649    1.0000 </r>
       <r>    4.4645    1.0000 </r>
       <r>    5.4653    1.0000 </r>
       <r>    6.9328    1.0000 </r>
       <r>    7.9207    1.0050 </r>
       <r>    9.2415   -0.0000 </r>
       <r>    9.8890    0.0000 </r>
       <r>   10.8287    0.0000 </r>
       <r>   11.1027    0.0000 </r>
       <r>   12.3284    0.0000 </r>
       <r>   13.2046    0.0000 </r>
      </set>
      <set comment="kpoint 75">
       <r>   -2.5212    1.0000 </r>
       <r>    3.0819    1.0000 </r>
       <r>    3.1544    1.0000 </r>
       <r>    5.6037    1.0000 </r>
       <r>    7.1785    1.0000 </r>
       <r>    8.6742   -0.0000 </r>
       <r>    9.4282    0.0000 </r>
       <r>    9.5742    0.0000 </r>
       <r>   10.0170    0.0000 </r>
       <r>   11.0214    0.0000 </r>
       <r>   12.5935    0.0000 </r>
       <r>   13.5072    0.0000 </r>
      </set>
      <set comment="kpoint 76">
       <r>   -2.1439    1.0000 </r>
       <r>    1.9318    1.0000 </r>
       <r>    3.4427    1.0000 </r>
       <r>    5.8443    1.0000 </r>
       <r>    7.1889    1.0000 </r>
       <r>    7.9511    1.0263 </r>
       <r>    8.9746   -0.0000 </r>
       <r>    9.7804    0.0000 </r>
       <r>   10.9600    0.0000 </r>
       <r>   11.7555    0.0000 </r>
       <r>   12.4469    0.0000 </r>
       <r>   13.0275    0.0000 </r>
      </set>
      <set comment="kpoint 77">
       <r>   -1.6176    1.0000 </r>
       <r>    0.8351    1.0000 </r>
       <r>    3.9457    1.0000 </r>
       <r>    6.1037    1.0000 </r>
       <r>    6.3992    1.0000 </r>
       <r>    8.0986   -0.0310 </r>
       <r>    8.4047   -0.0000 </r>
       <r>   10.1177    0.0000 </r>
       <r>   11.4562    0.0000 </r>
       <r>   11.4846    0.0000 </r>
       <r>   12.7131    0.0000 </r>
       <r>   13.3682    0.0000 </r>
      </set>
      <set comment="kpoint 78">
       <r>   -0.9438    1.0000 </r>
       <r>   -0.1252    1.0000 </r>
       <r>    4.5877    1.0000 </r>
       <r>    5.3602    1.0000 </r>
       <r>    6.7329    1.0000 </r>
       <r>    7.3476    1.0000 </r>
       <r>    9.1258   -0.0000 </r>
       <r>    9.8969    0.0000 </r>
       <r>   11.2608    0.0000 </r>
       <r>   11.8758    0.0000 </r>
       <r>   12.0002    0.0000 </r>
       <r>   12.6239    0.0000 </r>
      </set>
      <set comment="kpoint 79">
       <r>   -2.6541    1.0000 </r>
       <r>    2.9543    1.0000 </r>
       <r>    4.3804    1.0000 </r>
       <r>    4.3804    1.0000 </r>
       <r>    8.1333   -0.0054 </r>
       <r>    8.1333   -0.0054 </r>
       <r>    9.3133   -0.0000 </r>
       <r>    9.8557    0.0000 </r>
       <r>    9.8557    0.0000 </r>
       <r>   12.0809    0.0000 </r>
       <r>   12.4149    0.0000 </r>
       <r>   13.4305    0.0000 </r>
      </set>
      <set comment="kpoint 80">
       <r>   -2.4092    1.0000 </r>
       <r>    3.0752    1.0000 </r>
       <r>    3.1880    1.0000 </r>
       <r>    4.4356    1.0000 </r>
       <r>    8.1656   -0.0003 </r>
       <r>    8.9678   -0.0000 </r>
       <r>    9.4765    0.0000 </r>
       <r>    9.4890    0.0000 </r>
       <r>   10.2949    0.0000 </r>
       <r>   11.0835    0.0000 </r>
       <r>   12.2402    0.0000 </r>
       <r>   13.7870    0.0000 </r>
      </set>
      <set comment="kpoint 81">
[...]
       <r>    0.3804    1.0000 </r>
       <r>    1.1802    1.0000 </r>
       <r>    3.3458    1.0000 </r>
       <r>    4.0679    1.0000 </r>
       <r>    5.2728    1.0000 </r>
       <r>    5.9871    1.0000 </r>
       <r>    6.0146    1.0000 </r>
       <r>    6.7874    1.0000 </r>
       <r>   13.0959    0.0000 </r>
       <r>   13.7369    0.0000 </r>
       <r>   14.9888    0.0000 </r>
       <r>   15.5763    0.0000 </r>
      </set>
      <set comment="kpoint 210">
       <r>   -0.0850    1.0000 </r>
       <r>    0.7175    1.0000 </r>
       <r>    4.3835    1.0000 </r>
       <r>    4.3835    1.0000 </r>
       <r>    5.4421    1.0000 </r>
       <r>    5.4421    1.0000 </r>
       <r>    6.9455    1.0000 </r>
       <r>    7.7145    1.0000 </r>
       <r>   12.7177    0.0000 </r>
       <r>   12.7177    0.0000 </r>
       <r>   13.8644    0.0000 </r>
       <r>   13.8644    0.0000 </r>
      </set>
      <set comment="kpoint 211">
       <r>    1.3885    1.0000 </r>
       <r>    2.1783    1.0000 </r>
       <r>    3.0247    1.0000 </r>
       <r>    3.0247    1.0000 </r>
       <r>    3.8311    1.0000 </r>
       <r>    3.8311    1.0000 </r>
       <r>    6.7625    1.0000 </r>
       <r>    7.5302    1.0000 </r>
       <r>   15.6720    0.0000 </r>
       <r>   16.3911    0.0000 </r>
       <r>   16.8748    0.0000 </r>
       <r>   16.8748    0.0000 </r>
      </set>
      <set comment="kpoint 212">
       <r>    2.1126    1.0000 </r>
       <r>    2.1532    1.0000 </r>
       <r>    2.8910    1.0000 </r>
       <r>    2.9345    1.0000 </r>
       <r>    3.5814    1.0000 </r>
       <r>    4.3558    1.0000 </r>
       <r>    5.7372    1.0000 </r>
       <r>    6.5005    1.0000 </r>
       <r>   15.6879    0.0000 </r>
       <r>   16.3844    0.0000 </r>
       <r>   17.5009    0.0000 </r>
       <r>   17.9339    0.0000 </r>
      </set>
      <set comment="kpoint 213">
       <r>    1.4182    1.0000 </r>
       <r>    2.2112    1.0000 </r>
       <r>    2.9675    1.0000 </r>
       <r>    3.6961    1.0000 </r>
       <r>    4.2479    1.0000 </r>
       <r>    4.8935    1.0000 </r>
       <r>    5.0272    1.0000 </r>
       <r>    5.6145    1.0000 </r>
       <r>   15.3045    0.0000 </r>
       <r>   15.9359    0.0000 </r>
       <r>   17.0722    0.0000 </r>
       <r>   17.4104    0.0000 </r>
      </set>
      <set comment="kpoint 214">
       <r>    0.8265    1.0000 </r>
       <r>    1.6236    1.0000 </r>
       <r>    3.8934    1.0000 </r>
       <r>    3.8934    1.0000 </r>
       <r>    4.9326    1.0000 </r>
       <r>    4.9326    1.0000 </r>
       <r>    5.0623    1.0000 </r>
       <r>    5.8390    1.0000 </r>
       <r>   14.8648    0.0000 </r>
       <r>   14.8648    0.0000 </r>
       <r>   15.8974    0.0000 </r>
       <r>   15.8974    0.0000 </r>
      </set>
      <set comment="kpoint 215">
       <r>    2.6986    1.0000 </r>
       <r>    2.6986    1.0000 </r>
       <r>    2.8410    1.0000 </r>
       <r>    3.5100    1.0000 </r>
       <r>    3.5100    1.0000 </r>
       <r>    3.5719    1.0000 </r>
       <r>    4.7661    1.0000 </r>
       <r>    5.4893    1.0000 </r>
       <r>   17.0108    0.0000 </r>
       <r>   17.7253    0.0000 </r>
       <r>   18.2821    0.0000 </r>
       <r>   18.3661    0.0000 </r>
      </set>
      <set comment="kpoint 216">
       <r>    1.9894    1.0000 </r>
       <r>    2.7709    1.0000 </r>
       <r>    3.4210    1.0000 </r>
       <r>    3.6469    1.0000 </r>
       <r>    3.6469    1.0000 </r>
       <r>    4.1957    1.0000 </r>
       <r>    4.6755    1.0000 </r>
       <r>    4.6755    1.0000 </r>
       <r>   17.0820    0.0000 </r>
       <r>   17.0820    0.0000 </r>
       <r>   17.8631    0.0000 </r>
       <r>   17.8867    0.0000 </r>
      </set>
     </set>
    </set>
   </array>
  </eigenvalues>
  <separator name="orbital magnetization" >
   <v name="MAGDIPOLOUT">      0.00000000      0.00000000      0.00000000</v>
  </separator>
  <dos>
   <i name="efermi">      8.02753837 </i>
   <total>
    <array>
     <dimension dim="1">gridpoints</dimension>
     <dimension dim="2">spin</dimension>
     <field>energy</field>
     <field>total</field>
     <field>integrated</field>
     <set>
      <set comment="spin 1">
       <r>    -4.1970     0.0000     0.0000 </r>
       <r>    -4.1182     0.0000     0.0000 </r>
       <r>    -4.0394     0.0000     0.0000 </r>
       <r>    -3.9606     0.0000     0.0000 </r>
       <r>    -3.8818     0.0000     0.0000 </r>
       <r>    -3.8030     0.0000     0.0000 </r>
       <r>    -3.7242     0.0000     0.0000 </r>
       <r>    -3.6454     0.0000     0.0000 </r>
       <r>    -3.5667    -0.0000    -0.0000 </r>
       <r>    -3.4879    -0.0000    -0.0000 </r>
       <r>    -3.4091    -0.0000    -0.0000 </r>
       <r>    -3.3303    -0.0000    -0.0000 </r>
       <r>    -3.2515    -0.0000    -0.0000 </r>
       <r>    -3.1727    -0.0006    -0.0000 </r>
       <r>    -3.0939     0.0155     0.0012 </r>
       <r>    -3.0151     0.1134     0.0101 </r>
       <r>    -2.9363     0.2308     0.0283 </r>
       <r>    -2.8575     0.1456     0.0398 </r>
       <r>    -2.7787     0.1757     0.0536 </r>
       <r>    -2.6999     0.4953     0.0926 </r>
       <r>    -2.6212     0.3254     0.1183 </r>
       <r>    -2.5424     0.1129     0.1272 </r>
       <r>    -2.4636     0.3466     0.1545 </r>
       <r>    -2.3848     0.4704     0.1915 </r>
       <r>    -2.3060     0.5839     0.2375 </r>
       <r>    -2.2272     0.3276     0.2634 </r>
       <r>    -2.1484     0.4095     0.2956 </r>
       <r>    -2.0696     0.5205     0.3366 </r>
       <r>    -1.9908     0.3418     0.3636 </r>
       <r>    -1.9120     0.4940     0.4025 </r>
       <r>    -1.8332     0.4934     0.4414 </r>
       <r>    -1.7544     0.6780     0.4948 </r>
       <r>    -1.6757     0.5573     0.5387 </r>
       <r>    -1.5969     0.8230     0.6035 </r>
       <r>    -1.5181     0.4226     0.6368 </r>
       <r>    -1.4393     0.4926     0.6757 </r>
       <r>    -1.3605     0.4942     0.7146 </r>
       <r>    -1.2817     0.2387     0.7334 </r>
       <r>    -1.2029     0.9720     0.8100 </r>
       <r>    -1.1241     0.8907     0.8802 </r>
       <r>    -1.0453     0.7682     0.9407 </r>
       <r>    -0.9665     0.5616     0.9849 </r>
       <r>    -0.8877     0.7332     1.0427 </r>
       <r>    -0.8089     0.5640     1.0871 </r>
       <r>    -0.7302     0.9887     1.1650 </r>
       <r>    -0.6514     0.4693     1.2020 </r>
       <r>    -0.5726     0.7025     1.2574 </r>
       <r>    -0.4938     0.5022     1.2969 </r>
       <r>    -0.4150     0.7858     1.3589 </r>
       <r>    -0.3362     1.0877     1.4446 </r>
       <r>    -0.2574     0.8293     1.5099 </r>
       <r>    -0.1786     0.5596     1.5540 </r>
       <r>    -0.0998     1.1192     1.6422 </r>
       <r>    -0.0210     1.1792     1.7351 </r>
       <r>     0.0578     0.5401     1.7776 </r>
       <r>     0.1366     0.7075     1.8334 </r>
       <r>     0.2153     0.7478     1.8923 </r>
       <r>     0.2941     0.8702     1.9609 </r>
       <r>     0.3729     0.9482     2.0356 </r>
       <r>     0.4517     1.0213     2.1161 </r>
       <r>     0.5305     0.1690     2.1294 </r>
       <r>     0.6093     1.1668     2.2213 </r>
       <r>     0.6881     0.9004     2.2922 </r>
       <r>     0.7669     1.2700     2.3923 </r>
       <r>     0.8457     1.3642     2.4998 </r>
       <r>     0.9245     1.2497     2.5983 </r>
       <r>     1.0033     0.6803     2.6519 </r>
       <r>     1.0820     0.6014     2.6993 </r>
       <r>     1.1608     0.8946     2.7697 </r>
       <r>     1.2396     1.2344     2.8670 </r>
       <r>     1.3184     0.6466     2.9180 </r>
       <r>     1.3972     1.0291     2.9990 </r>
       <r>     1.4760     0.7367     3.0571 </r>
       <r>     1.5548     1.2103     3.1524 </r>
       <r>     1.6336     0.9402     3.2265 </r>
       <r>     1.7124     1.4507     3.3408 </r>
       <r>     1.7912     1.0872     3.4265 </r>
       <r>     1.8700     1.1520     3.5173 </r>
       <r>     1.9488     1.4159     3.6288 </r>
       <r>     2.0275     0.7996     3.6918 </r>
       <r>     2.1063     0.5860     3.7380 </r>
       <r>     2.1851     0.9650     3.8140 </r>
       <r>     2.2639     1.6578     3.9447 </r>
       <r>     2.3427     1.6816     4.0772 </r>
       <r>     2.4215     1.1035     4.1641 </r>
       <r>     2.5003     0.8076     4.2277 </r>
       <r>     2.5791     1.2069     4.3228 </r>
       <r>     2.6579     0.3567     4.3509 </r>
       <r>     2.7367     0.9834     4.4284 </r>
       <r>     2.8155     1.3279     4.5330 </r>
       <r>     2.8943     1.5545     4.6555 </r>
       <r>     2.9730     1.3132     4.7590 </r>
       <r>     3.0518     0.9012     4.8300 </r>
       <r>     3.1306     1.8571     4.9763 </r>
       <r>     3.2094     1.5711     5.1001 </r>
       <r>     3.2882     0.4780     5.1378 </r>
       <r>     3.3670     1.2462     5.2360 </r>
       <r>     3.4458     1.8905     5.3849 </r>
       <r>     3.5246     1.5324     5.5056 </r>
       <r>     3.6034     1.2303     5.6026 </r>
       <r>     3.6822     1.2825     5.7036 </r>
       <r>     3.7610     0.9883     5.7815 </r>
       <r>     3.8398     0.6394     5.8319 </r>
       <r>     3.9185     0.8451     5.8985 </r>
       <r>     3.9973     1.5974     6.0243 </r>
       <r>     4.0761     1.3338     6.1294 </r>
       <r>     4.1549     1.3897     6.2389 </r>
       <r>     4.2337     2.1520     6.4085 </r>
       <r>     4.3125     1.1330     6.4977 </r>
       <r>     4.3913     1.6240     6.6257 </r>
       <r>     4.4701     1.3510     6.7321 </r>
       <r>     4.5489     0.9131     6.8041 </r>
       <r>     4.6277     2.0380     6.9647 </r>
       <r>     4.7065     1.1598     7.0561 </r>
       <r>     4.7853     1.4714     7.1720 </r>
       <r>     4.8640     1.2674     7.2718 </r>
       <r>     4.9428     1.1418     7.3618 </r>
       <r>     5.0216     1.1546     7.4528 </r>
       <r>     5.1004     1.5435     7.5744 </r>
       <r>     5.1792     1.2481     7.6727 </r>
       <r>     5.2580     1.8317     7.8171 </r>
       <r>     5.3368     1.6494     7.9470 </r>
       <r>     5.4156     2.2914     8.1276 </r>
       <r>     5.4944     1.8766     8.2754 </r>
       <r>     5.5732     0.8895     8.3455 </r>
       <r>     5.6520     0.8710     8.4141 </r>
       <r>     5.7308     1.1892     8.5078 </r>
       <r>     5.8095     1.6036     8.6342 </r>
       <r>     5.8883     1.7741     8.7740 </r>
       <r>     5.9671     1.6322     8.9026 </r>
       <r>     6.0459     1.6805     9.0350 </r>
       <r>     6.1247     0.8624     9.1029 </r>
       <r>     6.2035     1.2866     9.2043 </r>
       <r>     6.2823     1.4749     9.3205 </r>
       <r>     6.3611     1.2173     9.4164 </r>
       <r>     6.4399     1.1170     9.5044 </r>
       <r>     6.5187     1.7230     9.6402 </r>
       <r>     6.5975     1.2985     9.7425 </r>
       <r>     6.6763     1.8223     9.8861 </r>
       <r>     6.7550     1.8378    10.0309 </r>
       <r>     6.8338     1.2153    10.1266 </r>
       <r>     6.9126     1.5378    10.2478 </r>
       <r>     6.9914     1.4021    10.3583 </r>
       <r>     7.0702     1.5416    10.4797 </r>
       <r>     7.1490     1.3120    10.5831 </r>
       <r>     7.2278     1.3423    10.6889 </r>
       <r>     7.3066     1.3212    10.7930 </r>
       <r>     7.3854     1.6852    10.9257 </r>
       <r>     7.4642     1.3461    11.0318 </r>
       <r>     7.5430     1.5311    11.1524 </r>
       <r>     7.6218     1.8391    11.2974 </r>
       <r>     7.7005     2.2644    11.4758 </r>
       <r>     7.7793     1.4067    11.5866 </r>
       <r>     7.8581     1.6554    11.7170 </r>
       <r>     7.9369     1.7293    11.8533 </r>
       <r>     8.0157     1.6920    11.9866 </r>
       <r>     8.0945     1.3626    12.0940 </r>
       <r>     8.1733     2.3195    12.2767 </r>
       <r>     8.2521     1.6932    12.4101 </r>
       <r>     8.3309     1.1212    12.4985 </r>
       <r>     8.4097     0.8421    12.5648 </r>
       <r>     8.4885     2.0138    12.7235 </r>
       <r>     8.5673     1.2542    12.8223 </r>
       <r>     8.6460     1.7405    12.9595 </r>
       <r>     8.7248     1.7477    13.0972 </r>
       <r>     8.8036     2.5485    13.2980 </r>
       <r>     8.8824     0.8917    13.3682 </r>
       <r>     8.9612     1.5725    13.4921 </r>
       <r>     9.0400     1.2343    13.5894 </r>
       <r>     9.1188     1.7306    13.7257 </r>
       <r>     9.1976     2.2437    13.9025 </r>
       <r>     9.2764     2.0865    14.0669 </r>
       <r>     9.3552     1.5206    14.1867 </r>
       <r>     9.4340     0.6278    14.2362 </r>
       <r>     9.5128     1.6797    14.3685 </r>
       <r>     9.5915     2.5329    14.5681 </r>
       <r>     9.6703     1.9853    14.7245 </r>
       <r>     9.7491     1.7634    14.8635 </r>
       <r>     9.8279     1.9876    15.0201 </r>
       <r>     9.9067     2.3595    15.2060 </r>
       <r>     9.9855     1.8376    15.3508 </r>
       <r>    10.0643     1.2601    15.4501 </r>
       <r>    10.1431     1.5723    15.5739 </r>
       <r>    10.2219     1.4581    15.6888 </r>
       <r>    10.3007     2.1663    15.8595 </r>
       <r>    10.3795     2.8090    16.0808 </r>
       <r>    10.4583     1.6390    16.2100 </r>
       <r>    10.5370     0.4872    16.2484 </r>
       <r>    10.6158     0.7854    16.3103 </r>
       <r>    10.6946     1.8153    16.4533 </r>
       <r>    10.7734     1.9359    16.6058 </r>
       <r>    10.8522     2.2123    16.7801 </r>
       <r>    10.9310     2.0624    16.9426 </r>
       <r>    11.0098     1.5695    17.0663 </r>
       <r>    11.0886     2.1133    17.2328 </r>
       <r>    11.1674     2.6446    17.4412 </r>
       <r>    11.2462     2.0965    17.6064 </r>
       <r>    11.3250     2.4781    17.8016 </r>
       <r>    11.4038     1.4206    17.9136 </r>
       <r>    11.4825     1.8476    18.0591 </r>
       <r>    11.5613     2.4281    18.2504 </r>
       <r>    11.6401     1.1700    18.3426 </r>
       <r>    11.7189     1.2495    18.4411 </r>
       <r>    11.7977     1.7149    18.5762 </r>
       <r>    11.8765     2.3187    18.7589 </r>
       <r>    11.9553     2.0124    18.9175 </r>
       <r>    12.0341     2.9868    19.1528 </r>
       <r>    12.1129     2.1630    19.3232 </r>
       <r>    12.1917     1.8903    19.4722 </r>
       <r>    12.2705     2.1648    19.6427 </r>
       <r>    12.3492     1.9547    19.7967 </r>
       <r>    12.4280     1.6381    19.9258 </r>
       <r>    12.5068     2.0177    20.0848 </r>
       <r>    12.5856     1.5946    20.2104 </r>
       <r>    12.6644     2.0043    20.3683 </r>
       <r>    12.7432     2.2103    20.5425 </r>
       <r>    12.8220     0.9241    20.6153 </r>
       <r>    12.9008     1.5462    20.7371 </r>
       <r>    12.9796     2.1465    20.9063 </r>
       <r>    13.0584     2.3952    21.0950 </r>
       <r>    13.1372     2.7122    21.3087 </r>
       <r>    13.2160     2.2404    21.4852 </r>
       <r>    13.2947     1.6191    21.6128 </r>
       <r>    13.3735     2.1831    21.7848 </r>
       <r>    13.4523     1.5112    21.9039 </r>
       <r>    13.5311     0.9728    21.9805 </r>
       <r>    13.6099     1.0326    22.0619 </r>
       <r>    13.6887     1.8168    22.2050 </r>
       <r>    13.7675     1.5925    22.3305 </r>
       <r>    13.8463     0.9233    22.4032 </r>
       <r>    13.9251     1.3980    22.5134 </r>
       <r>    14.0039     1.4169    22.6250 </r>
       <r>    14.0827     0.9651    22.7011 </r>
       <r>    14.1615     0.9631    22.7769 </r>
       <r>    14.2402     0.5065    22.8169 </r>
       <r>    14.3190     1.0040    22.8960 </r>
       <r>    14.3978     0.8152    22.9602 </r>
       <r>    14.4766     0.2489    22.9798 </r>
       <r>    14.5554     0.7573    23.0395 </r>
       <r>    14.6342     0.6076    23.0874 </r>
       <r>    14.7130     0.7498    23.1464 </r>
       <r>    14.7918     0.4383    23.1810 </r>
       <r>    14.8706     0.6642    23.2333 </r>
       <r>    14.9494     0.4252    23.2668 </r>
       <r>    15.0282     1.0510    23.3496 </r>
       <r>    15.1070     0.5556    23.3934 </r>
       <r>    15.1857     0.1982    23.4090 </r>
       <r>    15.2645     0.5896    23.4555 </r>
       <r>    15.3433     0.2862    23.4780 </r>
       <r>    15.4221     0.1029    23.4861 </r>
       <r>    15.5009     0.5162    23.5268 </r>
       <r>    15.5797     0.4106    23.5592 </r>
       <r>    15.6585     0.4358    23.5935 </r>
       <r>    15.7373     0.5866    23.6397 </r>
       <r>    15.8161     0.1849    23.6543 </r>
       <r>    15.8949     0.2132    23.6711 </r>
       <r>    15.9737     0.3853    23.7014 </r>
       <r>    16.0525     0.2101    23.7180 </r>
       <r>    16.1312     0.0159    23.7192 </r>
       <r>    16.2100     0.3375    23.7458 </r>
       <r>    16.2888     0.2380    23.7646 </r>
       <r>    16.3676     0.0559    23.7690 </r>
       <r>    16.4464     0.3317    23.7951 </r>
       <r>    16.5252     0.2156    23.8121 </r>
       <r>    16.6040     0.3745    23.8416 </r>
       <r>    16.6828     0.0234    23.8435 </r>
       <r>    16.7616     0.1024    23.8515 </r>
       <r>    16.8404     0.2181    23.8687 </r>
       <r>    16.9192     0.2209    23.8861 </r>
       <r>    16.9980     0.0109    23.8870 </r>
       <r>    17.0767     0.2104    23.9036 </r>
       <r>    17.1555     0.2976    23.9270 </r>
       <r>    17.2343     0.0799    23.9333 </r>
       <r>    17.3131     0.0064    23.9338 </r>
       <r>    17.3919     0.0325    23.9364 </r>
       <r>    17.4707     0.1385    23.9473 </r>
       <r>    17.5495     0.1386    23.9582 </r>
       <r>    17.6283    -0.0040    23.9579 </r>
       <r>    17.7071     0.0168    23.9592 </r>
       <r>    17.7859     0.0602    23.9639 </r>
       <r>    17.8647     0.0475    23.9677 </r>
       <r>    17.9435     0.2097    23.9842 </r>
       <r>    18.0222     0.0502    23.9882 </r>
       <r>    18.1010    -0.0024    23.9880 </r>
       <r>    18.1798    -0.0005    23.9879 </r>
       <r>    18.2586     0.0114    23.9888 </r>
       <r>    18.3374     0.0750    23.9947 </r>
       <r>    18.4162     0.0687    24.0002 </r>
       <r>    18.4950    -0.0019    24.0000 </r>
       <r>    18.5738    -0.0001    24.0000 </r>
       <r>    18.6526    -0.0000    24.0000 </r>
       <r>    18.7314    -0.0000    24.0000 </r>
       <r>    18.8102     0.0000    24.0000 </r>
       <r>    18.8890     0.0000    24.0000 </r>
       <r>    18.9677     0.0000    24.0000 </r>
       <r>    19.0465     0.0000    24.0000 </r>
       <r>    19.1253     0.0000    24.0000 </r>
       <r>    19.2041     0.0000    24.0000 </r>
       <r>    19.2829     0.0000    24.0000 </r>
       <r>    19.3617     0.0000    24.0000 </r>
       <r>    19.4405     0.0000    24.0000 </r>
      </set>
     </set>
    </array>
   </total>
  </dos>
 </calculation>
 <structure name="finalpos" >
  <crystal>
   <varray name="basis" >
    <v>       4.04336400       0.00000000       0.00000000 </v>
    <v>      -0.48520400       4.01414600       0.00000000 </v>
    <v>       0.00000000       0.00000000       4.04336400 </v>
   </varray>
   <i name="volume">     65.62643976 </i>
   <varray name="rec_basis" >
    <v>       0.24731882       0.02989430       0.00000000 </v>
    <v>       0.00000000       0.24911899       0.00000000 </v>
    <v>       0.00000000       0.00000000       0.24731882 </v>
   </varray>
  </crystal>
  <varray name="positions" >
   <v>       0.00000000       0.00000000       0.00000000 </v>
   <v>       0.00000000       0.50000000       0.50000000 </v>
   <v>       0.50000000       0.00000000       0.50000000 </v>
   <v>       0.50000000       0.50000000       0.00000000 </v>
  </varray>
 </structure>
</modeling>
