<?xml version="1.0" encoding="ISO-8859-1"?>
<modeling>
 <generator>
  <i name="program" type="string">vasp </i>
  <i name="version" type="string">5.4.4.18Apr17-6-g9f103f2a35  </i>
  <i name="subversion" type="string">(build Jun 11 2017 21:30:58) complex            parallel </i>
  <i name="platform" type="string">LinuxIFC </i>
  <i name="date" type="string">2022 07 07 </i>
  <i name="time" type="string">18:39:44 </i>
 </generator>
 <incar>
  <i type="string" name="PREC">accurate</i>
  <i type="string" name="ALGO"> Normal</i>
  <i type="logical" name="ADDGRID"> T  </i>
  <i type="int" name="NELM">   100</i>
  <i type="int" name="NELMIN">     4</i>
  <i type="int" name="IBRION">    -1</i>
  <i name="EDIFF">      0.00005000</i>
  <i name="ENCUT">    520.00000000</i>
  <i type="logical" name="LREAL"> F  </i>
  <i type="int" name="ISMEAR">     1</i>
  <i name="SIGMA">      0.05000000</i>
  <i type="logical" name="LWAVE"> F  </i>
  <i type="logical" name="LCHARG"> F  </i>
  <i type="logical" name="LASPH"> T  </i>
  <v type="int" name="KPOINT_BSE">    -1     0     0     0</v>
  <i type="int" name="NELM">   100</i>
  <i type="logical" name="LASPH"> T  </i>
 </incar>
 <structure name="primitive_cell" >
  <crystal>
   <varray name="basis" >
    <v>      -2.02168200       2.02168200       0.00000000 </v>
    <v>       2.02168200       2.02168200       0.00000000 </v>
    <v>      -0.24260200      -2.02168200      -2.00707300 </v>
   </varray>
   <i name="volume">     16.40660994 </i>
   <varray name="rec_basis" >
    <v>      -0.24731882       0.24731882      -0.21922469 </v>
    <v>       0.24731882       0.24731882      -0.27901329 </v>
    <v>       0.00000000       0.00000000      -0.49823798 </v>
   </varray>
  </crystal>
  <varray name="positions" >
   <v>       0.00000000       0.00000000       0.00000000 </v>
  </varray>
 </structure>
 <varray name="primitive_index" >
  <v type="int" >        1 </v>
 </varray>
 <kpoints>
  <generation param="Gamma">
   <v type="int" name="divisions">      11       11       11 </v>
   <v name="usershift">      0.00000000       0.00000000       0.00000000 </v>
   <v name="genvec1">      0.09090909       0.00000000       0.00000000 </v>
   <v name="genvec2">      0.00000000       0.09090909       0.00000000 </v>
   <v name="genvec3">      0.00000000       0.00000000       0.09090909 </v>
   <v name="shift">      0.00000000       0.00000000       0.00000000 </v>
  </generation>
  <varray name="kpointlist" >
   <v>       0.00000000       0.00000000       0.00000000 </v>
   <v>       0.09090909       0.00000000       0.00000000 </v>
   <v>       0.18181818       0.00000000       0.00000000 </v>
   <v>       0.27272727       0.00000000       0.00000000 </v>
   <v>       0.36363636       0.00000000       0.00000000 </v>
   <v>       0.45454545       0.00000000       0.00000000 </v>
   <v>       0.00000000       0.09090909       0.00000000 </v>
   <v>       0.09090909       0.09090909       0.00000000 </v>
   <v>       0.18181818       0.09090909       0.00000000 </v>
   <v>       0.27272727       0.09090909       0.00000000 </v>
   <v>       0.36363636       0.09090909       0.00000000 </v>
   <v>       0.45454545       0.09090909       0.00000000 </v>
   <v>       0.00000000       0.18181818       0.00000000 </v>
   <v>       0.09090909       0.18181818       0.00000000 </v>
   <v>       0.18181818       0.18181818       0.00000000 </v>
   <v>       0.27272727       0.18181818       0.00000000 </v>
   <v>       0.36363636       0.18181818       0.00000000 </v>
   <v>       0.45454545       0.18181818       0.00000000 </v>
   <v>       0.00000000       0.27272727       0.00000000 </v>
   <v>       0.09090909       0.27272727       0.00000000 </v>
   <v>       0.18181818       0.27272727       0.00000000 </v>
   <v>       0.27272727       0.27272727       0.00000000 </v>
   <v>       0.36363636       0.27272727       0.00000000 </v>
   <v>       0.45454545       0.27272727       0.00000000 </v>
   <v>       0.00000000       0.36363636       0.00000000 </v>
   <v>       0.09090909       0.36363636       0.00000000 </v>
   <v>       0.18181818       0.36363636       0.00000000 </v>
   <v>       0.27272727       0.36363636       0.00000000 </v>
   <v>       0.36363636       0.36363636       0.00000000 </v>
   <v>       0.45454545       0.36363636       0.00000000 </v>
   <v>       0.00000000       0.45454545       0.00000000 </v>
   <v>       0.09090909       0.45454545       0.00000000 </v>
   <v>       0.18181818       0.45454545       0.00000000 </v>
   <v>       0.27272727       0.45454545       0.00000000 </v>
   <v>       0.36363636       0.45454545       0.00000000 </v>
   <v>       0.45454545       0.45454545       0.00000000 </v>
   <v>       0.09090909       0.00000000       0.09090909 </v>
   <v>       0.18181818       0.00000000       0.09090909 </v>
   <v>       0.27272727       0.00000000       0.09090909 </v>
   <v>       0.36363636       0.00000000       0.09090909 </v>
   <v>       0.45454545       0.00000000       0.09090909 </v>
   <v>      -0.45454545       0.00000000       0.09090909 </v>
   <v>      -0.36363636       0.00000000       0.09090909 </v>
   <v>      -0.27272727       0.00000000       0.09090909 </v>
   <v>      -0.18181818       0.00000000       0.09090909 </v>
   <v>      -0.09090909       0.00000000       0.09090909 </v>
   <v>       0.09090909       0.09090909       0.09090909 </v>
   <v>       0.18181818       0.09090909       0.09090909 </v>
   <v>       0.27272727       0.09090909       0.09090909 </v>
   <v>       0.36363636       0.09090909       0.09090909 </v>
   <v>       0.45454545       0.09090909       0.09090909 </v>
   <v>      -0.45454545       0.09090909       0.09090909 </v>
   <v>      -0.36363636       0.09090909       0.09090909 </v>
   <v>      -0.27272727       0.09090909       0.09090909 </v>
   <v>      -0.18181818       0.09090909       0.09090909 </v>
   <v>      -0.09090909       0.09090909       0.09090909 </v>
   <v>       0.09090909       0.18181818       0.09090909 </v>
   <v>       0.18181818       0.18181818       0.09090909 </v>
   <v>       0.27272727       0.18181818       0.09090909 </v>
   <v>       0.36363636       0.18181818       0.09090909 </v>
   <v>       0.45454545       0.18181818       0.09090909 </v>
   <v>      -0.45454545       0.18181818       0.09090909 </v>
   <v>      -0.36363636       0.18181818       0.09090909 </v>
   <v>      -0.27272727       0.18181818       0.09090909 </v>
   <v>      -0.18181818       0.18181818       0.09090909 </v>
   <v>      -0.09090909       0.18181818       0.09090909 </v>
   <v>       0.09090909       0.27272727       0.09090909 </v>
   <v>       0.18181818       0.27272727       0.09090909 </v>
   <v>       0.27272727       0.27272727       0.09090909 </v>
   <v>       0.36363636       0.27272727       0.09090909 </v>
   <v>       0.45454545       0.27272727       0.09090909 </v>
   <v>      -0.45454545       0.27272727       0.09090909 </v>
   <v>      -0.36363636       0.27272727       0.09090909 </v>
   <v>      -0.27272727       0.27272727       0.09090909 </v>
   <v>      -0.18181818       0.27272727       0.09090909 </v>
   <v>      -0.09090909       0.27272727       0.09090909 </v>
   <v>       0.09090909       0.36363636       0.09090909 </v>
   <v>       0.18181818       0.36363636       0.09090909 </v>
   <v>       0.27272727       0.36363636       0.09090909 </v>
   <v>       0.36363636       0.36363636       0.09090909 </v>
   <v>       0.45454545       0.36363636       0.09090909 </v>
   <v>      -0.45454545       0.36363636       0.09090909 </v>
   <v>      -0.36363636       0.36363636       0.09090909 </v>
   <v>      -0.27272727       0.36363636       0.09090909 </v>
   <v>      -0.18181818       0.36363636       0.09090909 </v>
   <v>      -0.09090909       0.36363636       0.09090909 </v>
   <v>       0.09090909       0.45454545       0.09090909 </v>
   <v>       0.18181818       0.45454545       0.09090909 </v>
   <v>       0.27272727       0.45454545       0.09090909 </v>
   <v>       0.36363636       0.45454545       0.09090909 </v>
   <v>       0.45454545       0.45454545       0.09090909 </v>
   <v>      -0.45454545       0.45454545       0.09090909 </v>
   <v>      -0.36363636       0.45454545       0.09090909 </v>
   <v>      -0.27272727       0.45454545       0.09090909 </v>
   <v>      -0.18181818       0.45454545       0.09090909 </v>
   <v>      -0.09090909       0.45454545       0.09090909 </v>
   <v>       0.18181818       0.00000000       0.18181818 </v>
   <v>       0.27272727       0.00000000       0.18181818 </v>
   <v>       0.36363636       0.00000000       0.18181818 </v>
   <v>       0.45454545       0.00000000       0.18181818 </v>
   <v>      -0.45454545       0.00000000       0.18181818 </v>
   <v>      -0.36363636       0.00000000       0.18181818 </v>
   <v>      -0.27272727       0.00000000       0.18181818 </v>
   <v>      -0.18181818       0.00000000       0.18181818 </v>
   <v>       0.18181818       0.09090909       0.18181818 </v>
   <v>       0.27272727       0.09090909       0.18181818 </v>
   <v>       0.36363636       0.09090909       0.18181818 </v>
   <v>       0.45454545       0.09090909       0.18181818 </v>
   <v>      -0.45454545       0.09090909       0.18181818 </v>
   <v>      -0.36363636       0.09090909       0.18181818 </v>
   <v>      -0.27272727       0.09090909       0.18181818 </v>
   <v>      -0.18181818       0.09090909       0.18181818 </v>
   <v>       0.18181818       0.18181818       0.18181818 </v>
   <v>       0.27272727       0.18181818       0.18181818 </v>
   <v>       0.36363636       0.18181818       0.18181818 </v>
   <v>       0.45454545       0.18181818       0.18181818 </v>
   <v>      -0.45454545       0.18181818       0.18181818 </v>
   <v>      -0.36363636       0.18181818       0.18181818 </v>
   <v>      -0.27272727       0.18181818       0.18181818 </v>
   <v>      -0.18181818       0.18181818       0.18181818 </v>
   <v>       0.18181818       0.27272727       0.18181818 </v>
   <v>       0.27272727       0.27272727       0.18181818 </v>
   <v>       0.36363636       0.27272727       0.18181818 </v>
   <v>       0.45454545       0.27272727       0.18181818 </v>
   <v>      -0.45454545       0.27272727       0.18181818 </v>
   <v>      -0.36363636       0.27272727       0.18181818 </v>
   <v>      -0.27272727       0.27272727       0.18181818 </v>
   <v>      -0.18181818       0.27272727       0.18181818 </v>
   <v>       0.18181818       0.36363636       0.18181818 </v>
   <v>       0.27272727       0.36363636       0.18181818 </v>
   <v>       0.36363636       0.36363636       0.18181818 </v>
   <v>       0.45454545       0.36363636       0.18181818 </v>
   <v>      -0.45454545       0.36363636       0.18181818 </v>
   <v>      -0.36363636       0.36363636       0.18181818 </v>
   <v>      -0.27272727       0.36363636       0.18181818 </v>
   <v>      -0.18181818       0.36363636       0.18181818 </v>
   <v>       0.18181818       0.45454545       0.18181818 </v>
   <v>       0.27272727       0.45454545       0.18181818 </v>
   <v>       0.36363636       0.45454545       0.18181818 </v>
   <v>       0.45454545       0.45454545       0.18181818 </v>
   <v>      -0.45454545       0.45454545       0.18181818 </v>
   <v>      -0.36363636       0.45454545       0.18181818 </v>
   <v>      -0.27272727       0.45454545       0.18181818 </v>
   <v>      -0.18181818       0.45454545       0.18181818 </v>
   <v>       0.27272727       0.00000000       0.27272727 </v>
   <v>       0.36363636       0.00000000       0.27272727 </v>
   <v>       0.45454545       0.00000000       0.27272727 </v>
   <v>      -0.45454545       0.00000000       0.27272727 </v>
   <v>      -0.36363636       0.00000000       0.27272727 </v>
   <v>      -0.27272727       0.00000000       0.27272727 </v>
   <v>       0.27272727       0.09090909       0.27272727 </v>
   <v>       0.36363636       0.09090909       0.27272727 </v>
   <v>       0.45454545       0.09090909       0.27272727 </v>
   <v>      -0.45454545       0.09090909       0.27272727 </v>
   <v>      -0.36363636       0.09090909       0.27272727 </v>
   <v>      -0.27272727       0.09090909       0.27272727 </v>
   <v>       0.27272727       0.18181818       0.27272727 </v>
   <v>       0.36363636       0.18181818       0.27272727 </v>
   <v>       0.45454545       0.18181818       0.27272727 </v>
   <v>      -0.45454545       0.18181818       0.27272727 </v>
   <v>      -0.36363636       0.18181818       0.27272727 </v>
   <v>      -0.27272727       0.18181818       0.27272727 </v>
   <v>       0.27272727       0.27272727       0.27272727 </v>
   <v>       0.36363636       0.27272727       0.27272727 </v>
   <v>       0.45454545       0.27272727       0.27272727 </v>
   <v>      -0.45454545       0.27272727       0.27272727 </v>
   <v>      -0.36363636       0.27272727       0.27272727 </v>
   <v>      -0.27272727       0.27272727       0.27272727 </v>
   <v>       0.27272727       0.36363636       0.27272727 </v>
   <v>       0.36363636       0.36363636       0.27272727 </v>
   <v>       0.45454545       0.36363636       0.27272727 </v>
   <v>      -0.45454545       0.36363636       0.27272727 </v>
   <v>      -0.36363636       0.36363636       0.27272727 </v>
   <v>      -0.27272727       0.36363636       0.27272727 </v>
   <v>       0.27272727       0.45454545       0.27272727 </v>
   <v>       0.36363636       0.45454545       0.27272727 </v>
   <v>       0.45454545       0.45454545       0.27272727 </v>
   <v>      -0.45454545       0.45454545       0.27272727 </v>
   <v>      -0.36363636       0.45454545       0.27272727 </v>
   <v>      -0.27272727       0.45454545       0.27272727 </v>
   <v>       0.36363636       0.00000000       0.36363636 </v>
   <v>       0.45454545       0.00000000       0.36363636 </v>
   <v>      -0.45454545       0.00000000       0.36363636 </v>
   <v>      -0.36363636       0.00000000       0.36363636 </v>
   <v>       0.36363636       0.09090909       0.36363636 </v>
   <v>       0.45454545       0.09090909       0.36363636 </v>
   <v>      -0.45454545       0.09090909       0.36363636 </v>
   <v>      -0.36363636       0.09090909       0.36363636 </v>
   <v>       0.36363636       0.18181818       0.36363636 </v>
   <v>       0.45454545       0.18181818       0.36363636 </v>
   <v>      -0.45454545       0.18181818       0.36363636 </v>
   <v>      -0.36363636       0.18181818       0.36363636 </v>
   <v>       0.36363636       0.27272727       0.36363636 </v>
   <v>       0.45454545       0.27272727       0.36363636 </v>
   <v>      -0.45454545       0.27272727       0.36363636 </v>
   <v>      -0.36363636       0.27272727       0.36363636 </v>
   <v>       0.36363636       0.36363636       0.36363636 </v>
   <v>       0.45454545       0.36363636       0.36363636 </v>
   <v>      -0.45454545       0.36363636       0.36363636 </v>
   <v>      -0.36363636       0.36363636       0.36363636 </v>
   <v>       0.36363636       0.45454545       0.36363636 </v>
   <v>       0.45454545       0.45454545       0.36363636 </v>
   <v>      -0.45454545       0.45454545       0.36363636 </v>
   <v>      -0.36363636       0.45454545       0.36363636 </v>
   <v>       0.45454545       0.00000000       0.45454545 </v>
   <v>      -0.45454545       0.00000000       0.45454545 </v>
   <v>       0.45454545       0.09090909       0.45454545 </v>
   <v>      -0.45454545       0.09090909       0.45454545 </v>
   <v>       0.45454545       0.18181818       0.45454545 </v>
   <v>      -0.45454545       0.18181818       0.45454545 </v>
   <v>       0.45454545       0.27272727       0.45454545 </v>
   <v>      -0.45454545       0.27272727       0.45454545 </v>
   <v>       0.45454545       0.36363636       0.45454545 </v>
   <v>      -0.45454545       0.36363636       0.45454545 </v>
   <v>       0.45454545       0.45454545       0.45454545 </v>
   <v>      -0.45454545       0.45454545       0.45454545 </v>
  </varray>
  <varray name="weights" >
   <v>       0.00075131 </v>
   <v>       0.00300526 </v>
   <v>       0.00300526 </v>
   <v>       0.00300526 </v>
   <v>       0.00300526 </v>
   <v>       0.00300526 </v>
   <v>       0.00150263 </v>
   <v>       0.00601052 </v>
   <v>       0.00601052 </v>
   <v>       0.00601052 </v>
   <v>       0.00601052 </v>
   <v>       0.00601052 </v>
   <v>       0.00150263 </v>
   <v>       0.00601052 </v>
   <v>       0.00601052 </v>
   <v>       0.00601052 </v>
   <v>       0.00601052 </v>
   <v>       0.00601052 </v>
   <v>       0.00150263 </v>
   <v>       0.00601052 </v>
   <v>       0.00601052 </v>
   <v>       0.00601052 </v>
   <v>       0.00601052 </v>
   <v>       0.00601052 </v>
   <v>       0.00150263 </v>
   <v>       0.00601052 </v>
   <v>       0.00601052 </v>
   <v>       0.00601052 </v>
   <v>       0.00601052 </v>
   <v>       0.00601052 </v>
   <v>       0.00150263 </v>
   <v>       0.00601052 </v>
   <v>       0.00601052 </v>
   <v>       0.00601052 </v>
   <v>       0.00601052 </v>
   <v>       0.00601052 </v>
   <v>       0.00150263 </v>
   <v>       0.00300526 </v>
   <v>       0.00300526 </v>
   <v>       0.00300526 </v>
   <v>       0.00300526 </v>
   <v>       0.00300526 </v>
   <v>       0.00300526 </v>
   <v>       0.00300526 </v>
   <v>       0.00300526 </v>
   <v>       0.00150263 </v>
   <v>       0.00300526 </v>
   <v>       0.00601052 </v>
   <v>       0.00601052 </v>
   <v>       0.00601052 </v>
   <v>       0.00601052 </v>
   <v>       0.00601052 </v>
   <v>       0.00601052 </v>
   <v>       0.00601052 </v>
   <v>       0.00601052 </v>
   <v>       0.00300526 </v>
   <v>       0.00300526 </v>
   <v>       0.00601052 </v>
   <v>       0.00601052 </v>
   <v>       0.00601052 </v>
   <v>       0.00601052 </v>
   <v>       0.00601052 </v>
   <v>       0.00601052 </v>
   <v>       0.00601052 </v>
   <v>       0.00601052 </v>
   <v>       0.00300526 </v>
   <v>       0.00300526 </v>
   <v>       0.00601052 </v>
   <v>       0.00601052 </v>
   <v>       0.00601052 </v>
   <v>       0.00601052 </v>
   <v>       0.00601052 </v>
   <v>       0.00601052 </v>
   <v>       0.00601052 </v>
   <v>       0.00601052 </v>
   <v>       0.00300526 </v>
   <v>       0.00300526 </v>
   <v>       0.00601052 </v>
   <v>       0.00601052 </v>
   <v>       0.00601052 </v>
   <v>       0.00601052 </v>
   <v>       0.00601052 </v>
   <v>       0.00601052 </v>
   <v>       0.00601052 </v>
   <v>       0.00601052 </v>
   <v>       0.00300526 </v>
   <v>       0.00300526 </v>
   <v>       0.00601052 </v>
   <v>       0.00601052 </v>
   <v>       0.00601052 </v>
   <v>       0.00601052 </v>
   <v>       0.00601052 </v>
   <v>       0.00601052 </v>
   <v>       0.00601052 </v>
   <v>       0.00601052 </v>
   <v>       0.00300526 </v>
   <v>       0.00150263 </v>
   <v>       0.00300526 </v>
   <v>       0.00300526 </v>
   <v>       0.00300526 </v>
   <v>       0.00300526 </v>
   <v>       0.00300526 </v>
   <v>       0.00300526 </v>
   <v>       0.00150263 </v>
   <v>       0.00300526 </v>
   <v>       0.00601052 </v>
   <v>       0.00601052 </v>
   <v>       0.00601052 </v>
   <v>       0.00601052 </v>
   <v>       0.00601052 </v>
   <v>       0.00601052 </v>
   <v>       0.00300526 </v>
   <v>       0.00300526 </v>
   <v>       0.00601052 </v>
   <v>       0.00601052 </v>
   <v>       0.00601052 </v>
   <v>       0.00601052 </v>
   <v>       0.00601052 </v>
   <v>       0.00601052 </v>
   <v>       0.00300526 </v>
   <v>       0.00300526 </v>
   <v>       0.00601052 </v>
   <v>       0.00601052 </v>
   <v>       0.00601052 </v>
   <v>       0.00601052 </v>
   <v>       0.00601052 </v>
   <v>       0.00601052 </v>
   <v>       0.00300526 </v>
   <v>       0.00300526 </v>
   <v>       0.00601052 </v>
   <v>       0.00601052 </v>
   <v>       0.00601052 </v>
   <v>       0.00601052 </v>
   <v>       0.00601052 </v>
   <v>       0.00601052 </v>
   <v>       0.00300526 </v>
   <v>       0.00300526 </v>
   <v>       0.00601052 </v>
   <v>       0.00601052 </v>
   <v>       0.00601052 </v>
   <v>       0.00601052 </v>
   <v>       0.00601052 </v>
   <v>       0.00601052 </v>
   <v>       0.00300526 </v>
   <v>       0.00150263 </v>
   <v>       0.00300526 </v>
   <v>       0.00300526 </v>
   <v>       0.00300526 </v>
   <v>       0.00300526 </v>
   <v>       0.00150263 </v>
   <v>       0.00300526 </v>
   <v>       0.00601052 </v>
   <v>       0.00601052 </v>
   <v>       0.00601052 </v>
   <v>       0.00601052 </v>
   <v>       0.00300526 </v>
   <v>       0.00300526 </v>
   <v>       0.00601052 </v>
   <v>       0.00601052 </v>
   <v>       0.00601052 </v>
   <v>       0.00601052 </v>
   <v>       0.00300526 </v>
   <v>       0.00300526 </v>
   <v>       0.00601052 </v>
   <v>       0.00601052 </v>
   <v>       0.00601052 </v>
   <v>       0.00601052 </v>
   <v>       0.00300526 </v>
   <v>       0.00300526 </v>
   <v>       0.00601052 </v>
   <v>       0.00601052 </v>
   <v>       0.00601052 </v>
   <v>       0.00601052 </v>
   <v>       0.00300526 </v>
   <v>       0.00300526 </v>
   <v>       0.00601052 </v>
   <v>       0.00601052 </v>
   <v>       0.00601052 </v>
   <v>       0.00601052 </v>
   <v>       0.00300526 </v>
   <v>       0.00150263 </v>
   <v>       0.00300526 </v>
   <v>       0.00300526 </v>
   <v>       0.00150263 </v>
   <v>       0.00300526 </v>
   <v>       0.00601052 </v>
   <v>       0.00601052 </v>
   <v>       0.00300526 </v>
   <v>       0.00300526 </v>
   <v>       0.00601052 </v>
   <v>       0.00601052 </v>
   <v>       0.00300526 </v>
   <v>       0.00300526 </v>
   <v>       0.00601052 </v>
   <v>       0.00601052 </v>
   <v>       0.00300526 </v>
   <v>       0.00300526 </v>
   <v>       0.00601052 </v>
   <v>       0.00601052 </v>
   <v>       0.00300526 </v>
   <v>       0.00300526 </v>
   <v>       0.00601052 </v>
   <v>       0.00601052 </v>
   <v>       0.00300526 </v>
   <v>       0.00150263 </v>
   <v>       0.00150263 </v>
   <v>       0.00300526 </v>
   <v>       0.00300526 </v>
   <v>       0.00300526 </v>
   <v>       0.00300526 </v>
   <v>       0.00300526 </v>
   <v>       0.00300526 </v>
   <v>       0.00300526 </v>
   <v>       0.00300526 </v>
   <v>       0.00300526 </v>
   <v>       0.00300526 </v>
  </varray>
 </kpoints>
 <parameters>
  <separator name="general" >
   <i type="string" name="SYSTEM">unknown system</i>
   <i type="logical" name="LCOMPAT"> F  </i>
  </separator>
  <separator name="electronic" >
   <i type="string" name="PREC">accura</i>
   <i name="ENMAX">    520.00000000</i>
   <i name="ENAUG">    291.05200000</i>
   <i name="EDIFF">      0.00005000</i>
   <i type="int" name="IALGO">    38</i>
   <i type="int" name="IWAVPR">    10</i>
   <i type="int" name="NBANDS">    12</i>
   <i name="NELECT">     12.00000000</i>
   <i type="int" name="TURBO">     0</i>
   <i type="int" name="IRESTART">     0</i>
   <i type="int" name="NREBOOT">     0</i>
   <i type="int" name="NMIN">     0</i>
   <i name="EREF">      0.00000000</i>
   <separator name="electronic smearing" >
    <i type="int" name="ISMEAR">     1</i>
    <i name="SIGMA">      0.05000000</i>
    <i name="KSPACING">      0.50000000</i>
    <i type="logical" name="KGAMMA"> T  </i>
   </separator>
   <separator name="electronic projectors" >
    <i type="logical" name="LREAL"> F  </i>
    <v name="ROPT">      0.00000000</v>
    <i type="int" name="LMAXPAW">  -100</i>
    <i type="int" name="LMAXMIX">     2</i>
    <i type="logical" name="NLSPLINE"> F  </i>
   </separator>
   <separator name="electronic startup" >
    <i type="int" name="ISTART">     0</i>
    <i type="int" name="ICHARG">     2</i>
    <i type="int" name="INIWAV">     1</i>
   </separator>
   <separator name="electronic spin" >
    <i type="int" name="ISPIN">     1</i>
    <i type="logical" name="LNONCOLLINEAR"> F  </i>
    <v name="MAGMOM">      1.00000000      1.00000000      1.00000000      1.00000000</v>
    <i name="NUPDOWN">     -1.00000000</i>
    <i type="logical" name="LSORBIT"> F  </i>
    <v name="SAXIS">      0.00000000      0.00000000      1.00000000</v>
    <i type="logical" name="LSPIRAL"> F  </i>
    <v name="QSPIRAL">      0.00000000      0.00000000      0.00000000</v>
    <i type="logical" name="LZEROZ"> F  </i>
   </separator>
   <separator name="electronic exchange-correlation" >
    <i type="logical" name="LASPH"> T  </i>
    <i type="logical" name="LMETAGGA"> F  </i>
   </separator>
   <separator name="electronic convergence" >
    <i type="int" name="NELM">   100</i>
    <i type="int" name="NELMDL">    -5</i>
    <i type="int" name="NELMIN">     4</i>
    <i name="ENINI">    520.00000000</i>
    <separator name="electronic convergence detail" >
     <i type="logical" name="LDIAG"> T  </i>
     <i type="logical" name="LSUBROT"> F  </i>
     <i name="WEIMIN">      0.00000000</i>
     <i name="EBREAK">      0.00000104</i>
     <i name="DEPER">      0.30000000</i>
     <i type="int" name="NRMM">     4</i>
     <i name="TIME">      0.40000000</i>
    </separator>
   </separator>
   <separator name="electronic mixer" >
    <i name="AMIX">      0.40000000</i>
    <i name="BMIX">      1.00000000</i>
    <i name="AMIN">      0.10000000</i>
    <i name="AMIX_MAG">      1.60000000</i>
    <i name="BMIX_MAG">      1.00000000</i>
    <separator name="electronic mixer details" >
     <i type="int" name="IMIX">     4</i>
     <i type="logical" name="MIXFIRST"> F  </i>
     <i type="int" name="MAXMIX">   -45</i>
     <i name="WC">    100.00000000</i>
     <i type="int" name="INIMIX">     1</i>
     <i type="int" name="MIXPRE">     1</i>
     <i type="int" name="MREMOVE">     5</i>
    </separator>
   </separator>
   <separator name="electronic dipolcorrection" >
    <i type="logical" name="LDIPOL"> F  </i>
    <i type="logical" name="LMONO"> F  </i>
    <i type="int" name="IDIPOL">     0</i>
    <i name="EPSILON">      1.00000000</i>
    <v name="DIPOL">   -100.00000000   -100.00000000   -100.00000000</v>
    <i name="EFIELD">      0.00000000</i>
   </separator>
  </separator>
  <separator name="grids" >
   <i type="int" name="NGX">    30</i>
   <i type="int" name="NGY">    30</i>
   <i type="int" name="NGZ">    30</i>
   <i type="int" name="NGXF">    60</i>
   <i type="int" name="NGYF">    60</i>
   <i type="int" name="NGZF">    60</i>
   <i type="logical" name="ADDGRID"> T  </i>
  </separator>
  <separator name="ionic" >
   <i type="int" name="NSW">     0</i>
   <i type="int" name="IBRION">    -1</i>
   <i type="int" name="MDALGO">     0</i>
   <i type="int" name="ISIF">     2</i>
   <i name="PSTRESS">      0.00000000</i>
   <i name="EDIFFG">      0.00050000</i>
   <i type="int" name="NFREE">     0</i>
   <i name="POTIM">      0.50000000</i>
   <i name="SMASS">     -3.00000000</i>
   <i name="SCALEE">      1.00000000</i>
  </separator>
  <separator name="ionic md" >
   <i name="TEBEG">      0.00010000</i>
   <i name="TEEND">      0.00010000</i>
   <i type="int" name="NBLOCK">     1</i>
   <i type="int" name="KBLOCK">     1</i>
   <i type="int" name="NPACO">   256</i>
   <i name="APACO">     16.00000000</i>
  </separator>
  <separator name="symmetry" >
   <i type="int" name="ISYM">     2</i>
   <i name="SYMPREC">      0.00001000</i>
  </separator>
  <separator name="dos" >
   <i type="int" name="LORBIT">     0</i>
   <v name="RWIGS">     -1.00000000</v>
   <i type="int" name="NEDOS">   301</i>
   <i name="EMIN">     10.00000000</i>
   <i name="EMAX">    -10.00000000</i>
   <i name="EFERMI">      0.00000000</i>
  </separator>
  <separator name="writing" >
   <i type="int" name="NWRITE">     2</i>
   <i type="logical" name="LWAVE"> F  </i>
   <i type="logical" name="LDOWNSAMPLE"> F  </i>
   <i type="logical" name="LCHARG"> F  </i>
   <i type="logical" name="LPARD"> F  </i>
   <i type="logical" name="LVTOT"> F  </i>
   <i type="logical" name="LVHAR"> F  </i>
   <i type="logical" name="LELF"> F  </i>
   <i type="logical" name="LOPTICS"> F  </i>
   <v name="STM">      0.00000000      0.00000000      0.00000000      0.00000000      0.00000000      0.00000000      0.00000000</v>
  </separator>
  <separator name="performance" >
   <i type="int" name="NPAR">     4</i>
   <i type="int" name="NSIM">     4</i>
   <i type="int" name="NBLK">    -1</i>
   <i type="logical" name="LPLANE"> T  </i>
   <i type="logical" name="LSCALAPACK"> T  </i>
   <i type="logical" name="LSCAAWARE"> F  </i>
   <i type="logical" name="LSCALU"> F  </i>
   <i type="logical" name="LASYNC"> F  </i>
   <i type="logical" name="LORBITALREAL"> F  </i>
  </separator>
  <separator name="miscellaneous" >
   <i type="int" name="IDIOT">     3</i>
   <i type="int" name="ISPECIAL">     0</i>
   <i type="logical" name="LMUSIC"> F  </i>
   <v name="POMASS">     26.98100000</v>
   <v name="DARWINR">      0.00000000</v>
   <v name="DARWINV">      1.00000000</v>
   <i type="logical" name="LCORR"> T  </i>
  </separator>
  <i type="logical" name="GGA_COMPAT"> T  </i>
  <i type="logical" name="LBERRY"> F  </i>
  <i type="int" name="ICORELEVEL">     0</i>
  <i type="logical" name="LDAU"> F  </i>
  <i type="int" name="I_CONSTRAINED_M">     0</i>
  <separator name="electronic exchange-correlation" >
   <i type="string" name="GGA">--</i>
   <i type="int" name="VOSKOWN">     0</i>
   <i type="logical" name="LHFCALC"> F  </i>
   <i type="string" name="PRECFOCK"></i>
   <i type="logical" name="LSYMGRAD"> F  </i>
   <i type="logical" name="LHFONE"> F  </i>
   <i type="logical" name="LRHFCALC"> F  </i>
   <i type="logical" name="LTHOMAS"> F  </i>
   <i type="logical" name="LMODELHF"> F  </i>
   <i name="ENCUT4O">     -1.00000000</i>
   <i type="int" name="EXXOEP">     0</i>
   <i type="int" name="FOURORBIT">     0</i>
   <i name="AEXX">      0.00000000</i>
   <i name="HFALPHA">      0.00000000</i>
   <i name="MCALPHA">      0.00000000</i>
   <i name="ALDAX">      1.00000000</i>
   <i name="AGGAX">      1.00000000</i>
   <i name="ALDAC">      1.00000000</i>
   <i name="AGGAC">      1.00000000</i>
   <i type="int" name="NKREDX">     1</i>
   <i type="int" name="NKREDY">     1</i>
   <i type="int" name="NKREDZ">     1</i>
   <i type="logical" name="SHIFTRED"> F  </i>
   <i type="logical" name="ODDONLY"> F  </i>
   <i type="logical" name="EVENONLY"> F  </i>
   <i type="int" name="LMAXFOCK">     0</i>
   <i type="int" name="NMAXFOCKAE">     0</i>
   <i type="logical" name="LFOCKAEDFT"> F  </i>
   <i name="HFSCREEN">      0.00000000</i>
   <i name="HFSCREENC">      0.00000000</i>
   <i type="int" name="NBANDSGWLOW">     0</i>
  </separator>
  <separator name="vdW DFT" >
   <i type="logical" name="LUSE_VDW"> F  </i>
   <i name="Zab_VDW">     -0.84910000</i>
   <i name="PARAM1">      0.12340000</i>
   <i name="PARAM2">      1.00000000</i>
   <i name="PARAM3">      0.00000000</i>
  </separator>
  <separator name="model GW" >
   <i type="int" name="MODEL_GW">     0</i>
   <i name="MODEL_EPS0">      9.84396596</i>
   <i name="MODEL_ALPHA">      1.00000000</i>
  </separator>
  <separator name="linear response parameters" >
   <i type="logical" name="LEPSILON"> F  </i>
   <i type="logical" name="LRPA"> F  </i>
   <i type="logical" name="LNABLA"> F  </i>
   <i type="logical" name="LVEL"> F  </i>
   <i type="int" name="KINTER">     0</i>
   <i name="CSHIFT">      0.10000000</i>
   <i name="OMEGAMAX">     -1.00000000</i>
   <i name="DEG_THRESHOLD">      0.00200000</i>
   <i name="RTIME">     -0.10000000</i>
   <i name="WPLASMAI">      0.00000000</i>
   <v name="DFIELD">      0.00000000      0.00000000      0.00000000</v>
   <v name="WPLASMA">      0.00000000      0.00000000      0.00000000      0.00000000      0.00000000      0.00000000      0.00000000      0.00000000      0.00000000</v>
  </separator>
  <separator name="orbital magnetization" >
   <i type="logical" name="NUCIND"> F  </i>
   <v name="MAGPOS">      0.00000000      0.00000000      0.00000000</v>
   <i type="logical" name="LNICSALL"> T  </i>
   <i type="logical" name="ORBITALMAG"> F  </i>
   <i type="logical" name="LMAGBLOCH"> F  </i>
   <i type="logical" name="LCHIMAG"> F  </i>
   <i type="logical" name="LGAUGE"> T  </i>
   <i type="int" name="MAGATOM">     0</i>
   <v name="MAGDIPOL">      0.00000000      0.00000000      0.00000000</v>
   <v name="AVECCONST">      0.00000000      0.00000000      0.00000000</v>
  </separator>
  <separator name="response functions" >
   <i type="logical" name="LADDER"> F  </i>
   <i type="logical" name="LRPAFORCE"> F  </i>
   <i type="logical" name="LFXC"> F  </i>
   <i type="logical" name="LHARTREE"> T  </i>
   <i type="int" name="IBSE">     0</i>
   <v type="int" name="KPOINT">    -1     0     0     0</v>
   <i type="logical" name="LTCTE"> F  </i>
   <i type="logical" name="LTETE"> F  </i>
   <i type="logical" name="LTRIPLET"> F  </i>
   <i type="logical" name="LFXCEPS"> F  </i>
   <i type="logical" name="LFXHEG"> F  </i>
   <i type="int" name="NATURALO">     2</i>
   <i type="logical" name="L2ORDER"> F  </i>
   <i type="logical" name="LMP2LT"> F  </i>
   <i type="logical" name="LUSEW"> F  </i>
   <i name="ENCUTGW">     -2.00000000</i>
   <i name="ENCUTGWSOFT">     -2.00000000</i>
   <i name="ENCUTLF">     -1.00000000</i>
   <i type="int" name="LMAXMP2">    -1</i>
   <i name="SCISSOR">      0.00000000</i>
   <i type="int" name="NOMEGA">     0</i>
   <i type="int" name="NOMEGAR">     0</i>
   <i type="int" name="NBANDSGW">    -1</i>
   <i type="int" name="NBANDSO">    -1</i>
   <i type="int" name="NBANDSV">    -1</i>
   <i type="int" name="NELM">   100</i>
   <i type="int" name="NELMHF">     1</i>
   <i type="int" name="DIM">     3</i>
   <i type="int" name="ANTIRES">     0</i>
   <i name="OMEGAMAX">    -30.00000000</i>
   <i name="OMEGAMIN">    -30.00000000</i>
   <i name="OMEGATL">   -200.00000000</i>
   <i type="int" name="OMEGAGRID">   140</i>
   <i name="CSHIFT">     -0.10000000</i>
   <i type="logical" name="SELFENERGY"> F  </i>
   <i type="logical" name="LSPECTRAL"> F  </i>
   <i type="logical" name="LSPECTRALGW"> F  </i>
   <i type="logical" name="LSINGLES"> F  </i>
   <i type="logical" name="LFERMIGW"> F  </i>
   <i type="logical" name="ODDONLYGW"> F  </i>
   <i type="logical" name="EVENONLYGW"> F  </i>
   <i type="int" name="NKREDLFX">     1</i>
   <i type="int" name="NKREDLFY">     1</i>
   <i type="int" name="NKREDLFZ">     1</i>
   <i type="int" name="MAXMEM">  2800</i>
   <i type="int" name="TELESCOPE">     0</i>
   <i type="int" name="TAUPAR">     1</i>
   <i type="int" name="OMEGAPAR">    -1</i>
   <i name="LAMBDA">      1.00000000</i>
  </separator>
  <separator name="External order field" >
   <i name="OFIELD_KAPPA">      0.00000000</i>
   <v name="OFIELD_K">      0.00000000      0.00000000      0.00000000</v>
   <i name="OFIELD_Q6_NEAR">      0.00000000</i>
   <i name="OFIELD_Q6_FAR">      0.00000000</i>
   <i name="OFIELD_A">      0.00000000</i>
  </separator>
 </parameters>
 <atominfo>
  <atoms>       4 </atoms>
  <types>       1 </types>
  <array name="atoms" >
   <dimension dim="1">ion</dimension>
   <field type="string">element</field>
   <field type="int">atomtype</field>
   <set>
    <rc><c>Al</c><c>   1</c></rc>
    <rc><c>Al</c><c>   1</c></rc>
    <rc><c>Al</c><c>   1</c></rc>
    <rc><c>Al</c><c>   1</c></rc>
   </set>
  </array>
  <array name="atomtypes" >
   <dimension dim="1">type</dimension>
   <field type="int">atomspertype</field>
   <field type="string">element</field>
   <field>mass</field>
   <field>valence</field>
   <field type="string">pseudopotential</field>
   <set>
    <rc><c>   4</c><c>Al</c><c>     26.98100000</c><c>      3.00000000</c><c>  PAW_PBE Al 04Jan2001                  </c></rc>
   </set>
  </array>
 </atominfo>
 <structure name="initialpos" >
  <crystal>
   <varray name="basis" >
    <v>       4.04336400       0.00000000       0.00000000 </v>
    <v>       0.00000000       4.04336400       0.00000000 </v>
    <v>       0.48520400       0.00000000       4.01414600 </v>
   </varray>
   <i name="volume">     65.62643976 </i>
   <varray name="rec_basis" >
    <v>       0.24731882       0.00000000      -0.02989430 </v>
    <v>       0.00000000       0.24731882       0.00000000 </v>
    <v>       0.00000000       0.00000000       0.24911899 </v>
   </varray>
  </crystal>
  <varray name="positions" >
   <v>       0.00000000       0.00000000       0.00000000 </v>
   <v>       0.00000000       0.50000000       0.50000000 </v>
   <v>       0.50000000       0.00000000       0.50000000 </v>
   <v>       0.50000000       0.50000000       0.00000000 </v>
  </varray>
 </structure>
 <calculation>
  <scstep>
   <time name="dav">    0.78    0.82</time>
   <time name="total">    0.87    0.92</time>
   <energy>
    <i name="alphaZ">     -0.81889188 </i>
    <i name="ewald">   -294.17001667 </i>
    <i name="hartreedc">     -0.47150259 </i>
    <i name="XCdc">   -104.91149677 </i>
    <i name="pawpsdc">    264.80062850 </i>
    <i name="pawaedc">   -136.98248303 </i>
    <i name="eentropy">     -0.00021726 </i>
    <i name="bandstr">     65.73745124 </i>
    <i name="atom">    214.15382826 </i>
    <i name="e_fr_energy">      7.33729981 </i>
    <i name="e_wo_entrp">      7.33751706 </i>
    <i name="e_0_energy">      7.33737223 </i>
   </energy>
  </scstep>
  <scstep>
   <time name="dav">    0.90    0.90</time>
   <time name="total">    0.90    0.90</time>
   <energy>
    <i name="e_fr_energy">    -14.23545912 </i>
    <i name="e_wo_entrp">    -14.23531587 </i>
    <i name="e_0_energy">    -14.23541137 </i>
   </energy>
  </scstep>
  <scstep>
   <time name="dav">    0.95    0.95</time>
   <time name="total">    0.95    0.95</time>
   <energy>
    <i name="e_fr_energy">    -14.95070957 </i>
    <i name="e_wo_entrp">    -14.95100901 </i>
    <i name="e_0_energy">    -14.95080938 </i>
   </energy>
  </scstep>
  <scstep>
   <time name="dav">    0.84    0.84</time>
   <time name="total">    0.84    0.84</time>
   <energy>
    <i name="e_fr_energy">    -14.95650093 </i>
    <i name="e_wo_entrp">    -14.95680768 </i>
    <i name="e_0_energy">    -14.95660318 </i>
   </energy>
  </scstep>
  <scstep>
   <time name="dav">    0.91    0.91</time>
   <time name="total">    0.97    0.97</time>
   <energy>
    <i name="e_fr_energy">    -14.95655807 </i>
    <i name="e_wo_entrp">    -14.95686484 </i>
    <i name="e_0_energy">    -14.95666033 </i>
   </energy>
  </scstep>
  <scstep>
   <time name="dav">    0.84    0.84</time>
   <time name="total">    0.99    0.99</time>
   <energy>
    <i name="e_fr_energy">    -14.90482995 </i>
    <i name="e_wo_entrp">    -14.90513800 </i>
    <i name="e_0_energy">    -14.90493263 </i>
   </energy>
  </scstep>
  <scstep>
   <time name="dav">    0.82    0.82</time>
   <time name="total">    0.97    0.97</time>
   <energy>
    <i name="e_fr_energy">    -14.86718449 </i>
    <i name="e_wo_entrp">    -14.86745563 </i>
    <i name="e_0_energy">    -14.86727487 </i>
   </energy>
  </scstep>
  <scstep>
   <time name="dav">    0.90    0.90</time>
   <time name="total">    1.04    1.04</time>
   <energy>
    <i name="e_fr_energy">    -14.86708273 </i>
    <i name="e_wo_entrp">    -14.86735520 </i>
    <i name="e_0_energy">    -14.86717355 </i>
   </energy>
  </scstep>
  <scstep>
   <time name="dav">    0.62    0.62</time>
   <time name="total">    0.70    0.70</time>
   <energy>
    <i name="alphaZ">     -0.81889188 </i>
    <i name="ewald">   -294.17001667 </i>
    <i name="hartreedc">     -0.56210280 </i>
    <i name="XCdc">   -104.45433009 </i>
    <i name="pawpsdc">    580.68675643 </i>
    <i name="pawaedc">   -452.93579845 </i>
    <i name="eentropy">      0.00027165 </i>
    <i name="bandstr">     43.23320796 </i>
    <i name="atom">    214.15382826 </i>
    <i name="e_fr_energy">    -14.86707559 </i>
    <i name="e_wo_entrp">    -14.86734724 </i>
    <i name="e_0_energy">    -14.86716614 </i>
   </energy>
  </scstep>
  <structure>
   <crystal>
    <varray name="basis" >
     <v>       4.04336400       0.00000000       0.00000000 </v>
     <v>       0.00000000       4.04336400       0.00000000 </v>
     <v>       0.48520400       0.00000000       4.01414600 </v>
    </varray>
    <i name="volume">     65.62643976 </i>
    <varray name="rec_basis" >
     <v>       0.24731882       0.00000000      -0.02989430 </v>
     <v>       0.00000000       0.24731882       0.00000000 </v>
     <v>       0.00000000       0.00000000       0.24911899 </v>
    </varray>
   </crystal>
   <varray name="positions" >
    <v>       0.00000000       0.00000000       0.00000000 </v>
    <v>       0.00000000       0.50000000       0.50000000 </v>
    <v>       0.50000000       0.00000000       0.50000000 </v>
    <v>       0.50000000       0.50000000       0.00000000 </v>
   </varray>
  </structure>
  <varray name="forces" >
   <v>       0.00000000       0.00000000      -0.00000000 </v>
   <v>      -0.00000000       0.00000000      -0.00000000 </v>
   <v>      -0.00000000      -0.00000000       0.00000000 </v>
   <v>       0.00000000      -0.00000000       0.00000000 </v>
  </varray>
  <varray name="stress" >
   <v>      16.67359869       0.00000000     -46.98902253 </v>
   <v>       0.00000000       3.57994499       0.00000000 </v>
   <v>     -46.98902253       0.00000000      28.03305437 </v>
  </varray>
  <energy>
   <i name="e_fr_energy">    -14.86707559 </i>
   <i name="e_wo_entrp">    -14.86716614 </i>
   <i name="e_0_energy">      0.00027165 </i>
  </energy>
  <time name="totalsc">    9.21    9.33</time>
  <eigenvalues>
   <array>
    <dimension dim="1">band</dimension>
    <dimension dim="2">kpoint</dimension>
    <dimension dim="3">spin</dimension>
    <field>eigene</field>
    <field>occ</field>
    <set>
     <set comment="spin 1">
      <set comment="kpoint 1">
       <r>   -3.1226    1.0000 </r>
       <r>    5.0852    1.0000 </r>
       <r>    5.1526    1.0000 </r>
       <r>    5.1526    1.0000 </r>
       <r>    6.3710    1.0000 </r>
       <r>    6.5551    1.0000 </r>
       <r>    6.5551    1.0000 </r>
       <r>   11.6749    0.0000 </r>
       <r>   12.6319    0.0000 </r>
       <r>   13.3397    0.0000 </r>
       <r>   13.3397    0.0000 </r>
       <r>   13.7216    0.0000 </r>
      </set>
      <set comment="kpoint 2">
       <r>   -3.0467    1.0000 </r>
       <r>    4.1857    1.0000 </r>
       <r>    5.1546    1.0000 </r>
       <r>    5.1970    1.0000 </r>
       <r>    6.4432    1.0000 </r>
       <r>    6.6510    1.0000 </r>
       <r>    7.6501    1.0000 </r>
       <r>   10.8293    0.0000 </r>
       <r>   12.0586    0.0000 </r>
       <r>   13.2087    0.0000 </r>
       <r>   13.3416    0.0000 </r>
       <r>   13.3725    0.0000 </r>
      </set>
      <set comment="kpoint 3">
       <r>   -2.8194    1.0000 </r>
       <r>    2.8698    1.0000 </r>
       <r>    5.3358    1.0000 </r>
       <r>    5.3630    1.0000 </r>
       <r>    6.6578    1.0000 </r>
       <r>    6.9307    1.0000 </r>
       <r>    9.3481   -0.0000 </r>
       <r>    9.7275    0.0000 </r>
       <r>   10.7336    0.0000 </r>
       <r>   12.1997    0.0000 </r>
       <r>   13.2226    0.0000 </r>
       <r>   13.4086    0.0000 </r>
      </set>
      <set comment="kpoint 4">
       <r>   -2.4413    1.0000 </r>
       <r>    1.6437    1.0000 </r>
       <r>    5.5811    1.0000 </r>
       <r>    5.7104    1.0000 </r>
       <r>    7.0070    1.0000 </r>
       <r>    7.3717    1.0000 </r>
       <r>    8.7236   -0.0000 </r>
       <r>    9.5455    0.0000 </r>
       <r>   11.1461    0.0000 </r>
       <r>   11.2001    0.0000 </r>
       <r>   12.1377    0.0000 </r>
       <r>   13.5916    0.0000 </r>
      </set>
      <set comment="kpoint 5">
       <r>   -1.9137    1.0000 </r>
       <r>    0.5443    1.0000 </r>
       <r>    5.9444    1.0000 </r>
       <r>    6.1972    1.0000 </r>
       <r>    7.4371    1.0000 </r>
       <r>    7.8864    1.0002 </r>
       <r>    7.9237    1.0062 </r>
       <r>    8.4976   -0.0000 </r>
       <r>   10.2106    0.0000 </r>
       <r>   11.0297    0.0000 </r>
       <r>   13.1185    0.0000 </r>
       <r>   13.9039    0.0000 </r>
      </set>
      <set comment="kpoint 6">
       <r>   -1.2385    1.0000 </r>
       <r>   -0.4181    1.0000 </r>
       <r>    6.4325    1.0000 </r>
       <r>    6.8238    1.0000 </r>
       <r>    7.0425    1.0000 </r>
       <r>    7.5905    1.0000 </r>
       <r>    8.0739   -0.0159 </r>
       <r>    8.3494   -0.0000 </r>
       <r>    9.6609    0.0000 </r>
       <r>   10.0858    0.0000 </r>
       <r>   14.3486    0.0000 </r>
       <r>   14.6988    0.0000 </r>
      </set>
      <set comment="kpoint 7">
       <r>   -3.0478    1.0000 </r>
       <r>    4.1002    1.0000 </r>
       <r>    5.2198    1.0000 </r>
       <r>    5.2198    1.0000 </r>
       <r>    6.6273    1.0000 </r>
       <r>    6.6273    1.0000 </r>
       <r>    7.4842    1.0000 </r>
       <r>   11.7395    0.0000 </r>
       <r>   12.0720    0.0000 </r>
       <r>   12.0720    0.0000 </r>
       <r>   12.7066    0.0000 </r>
       <r>   13.2431    0.0000 </r>
      </set>
      <set comment="kpoint 8">
       <r>   -2.9720    1.0000 </r>
       <r>    4.1715    1.0000 </r>
       <r>    4.2555    1.0000 </r>
       <r>    5.2642    1.0000 </r>
       <r>    6.7221    1.0000 </r>
       <r>    7.5540    1.0000 </r>
       <r>    7.7185    1.0000 </r>
       <r>   10.8974    0.0000 </r>
       <r>   11.1264    0.0000 </r>
       <r>   12.1199    0.0000 </r>
       <r>   13.3310    0.0000 </r>
       <r>   13.4438    0.0000 </r>
      </set>
      <set comment="kpoint 9">
       <r>   -2.7448    1.0000 </r>
       <r>    2.9410    1.0000 </r>
       <r>    4.3851    1.0000 </r>
       <r>    5.4031    1.0000 </r>
       <r>    6.9969    1.0000 </r>
       <r>    7.7609    1.0000 </r>
       <r>    9.4095    0.0000 </r>
       <r>    9.7976    0.0000 </r>
       <r>    9.8693    0.0000 </r>
       <r>   12.2719    0.0000 </r>
       <r>   13.1490    0.0000 </r>
       <r>   13.2933    0.0000 </r>
      </set>
      <set comment="kpoint 10">
       <r>   -2.3669    1.0000 </r>
       <r>    1.7158    1.0000 </r>
       <r>    4.7402    1.0000 </r>
       <r>    5.6481    1.0000 </r>
       <r>    7.4096    1.0000 </r>
       <r>    8.0896   -0.0354 </r>
       <r>    8.7362   -0.0000 </r>
       <r>    8.8024   -0.0000 </r>
       <r>   11.2277    0.0000 </r>
       <r>   12.1050    0.0000 </r>
       <r>   12.2131    0.0000 </r>
       <r>   12.5683    0.0000 </r>
      </set>
      <set comment="kpoint 11">
       <r>   -1.8396    1.0000 </r>
       <r>    0.6171    1.0000 </r>
       <r>    5.2350    1.0000 </r>
       <r>    6.0090    1.0000 </r>
       <r>    7.4536    1.0000 </r>
       <r>    7.8745    1.0001 </r>
       <r>    8.2426   -0.0000 </r>
       <r>    8.5868   -0.0000 </r>
       <r>   11.1213    0.0000 </r>
       <r>   11.1344    0.0000 </r>
       <r>   12.6473    0.0000 </r>
       <r>   13.4971    0.0000 </r>
      </set>
      <set comment="kpoint 12">
       <r>   -1.1648    1.0000 </r>
       <r>   -0.3448    1.0000 </r>
       <r>    5.8639    1.0000 </r>
       <r>    6.4451    1.0000 </r>
       <r>    6.6982    1.0000 </r>
       <r>    7.1376    1.0000 </r>
       <r>    8.7974   -0.0000 </r>
       <r>    9.0116   -0.0000 </r>
       <r>   10.2801    0.0000 </r>
       <r>   10.3588    0.0000 </r>
       <r>   13.2499    0.0000 </r>
       <r>   13.8759    0.0000 </r>
      </set>
      <set comment="kpoint 13">
       <r>   -2.8237    1.0000 </r>
       <r>    2.7925    1.0000 </r>
       <r>    5.4208    1.0000 </r>
       <r>    5.4208    1.0000 </r>
       <r>    6.8425    1.0000 </r>
       <r>    6.8425    1.0000 </r>
       <r>    9.1753   -0.0000 </r>
       <r>   10.7728    0.0000 </r>
       <r>   10.7728    0.0000 </r>
       <r>   11.9333    0.0000 </r>
       <r>   12.2389    0.0000 </r>
       <r>   12.2389    0.0000 </r>
      </set>
      <set comment="kpoint 14">
       <r>   -2.7480    1.0000 </r>
       <r>    2.8649    1.0000 </r>
       <r>    4.4645    1.0000 </r>
       <r>    5.4653    1.0000 </r>
       <r>    6.9328    1.0000 </r>
       <r>    7.9207    1.0050 </r>
       <r>    9.2415   -0.0000 </r>
       <r>    9.8890    0.0000 </r>
       <r>   10.8287    0.0000 </r>
       <r>   11.1027    0.0000 </r>
       <r>   12.3284    0.0000 </r>
       <r>   13.2046    0.0000 </r>
      </set>
      <set comment="kpoint 15">
       <r>   -2.5212    1.0000 </r>
       <r>    3.0819    1.0000 </r>
       <r>    3.1544    1.0000 </r>
       <r>    5.6037    1.0000 </r>
       <r>    7.1785    1.0000 </r>
       <r>    8.6742   -0.0000 </r>
       <r>    9.4282    0.0000 </r>
       <r>    9.5742    0.0000 </r>
       <r>   10.0170    0.0000 </r>
       <r>   11.0214    0.0000 </r>
       <r>   12.5935    0.0000 </r>
       <r>   13.5072    0.0000 </r>
      </set>
      <set comment="kpoint 16">
       <r>   -2.1439    1.0000 </r>
       <r>    1.9318    1.0000 </r>
       <r>    3.4427    1.0000 </r>
       <r>    5.8443    1.0000 </r>
       <r>    7.1889    1.0000 </r>
       <r>    7.9511    1.0263 </r>
       <r>    8.9746   -0.0000 </r>
       <r>    9.7804    0.0000 </r>
       <r>   10.9600    0.0000 </r>
       <r>   11.7555    0.0000 </r>
       <r>   12.4469    0.0000 </r>
       <r>   13.0275    0.0000 </r>
      </set>
      <set comment="kpoint 17">
       <r>   -1.6176    1.0000 </r>
       <r>    0.8351    1.0000 </r>
       <r>    3.9457    1.0000 </r>
       <r>    6.1037    1.0000 </r>
       <r>    6.3992    1.0000 </r>
       <r>    8.0986   -0.0310 </r>
       <r>    8.4047   -0.0000 </r>
       <r>   10.1177    0.0000 </r>
       <r>   11.4562    0.0000 </r>
       <r>   11.4846    0.0000 </r>
       <r>   12.7131    0.0000 </r>
       <r>   13.3674    0.0000 </r>
      </set>
      <set comment="kpoint 18">
       <r>   -0.9438    1.0000 </r>
       <r>   -0.1252    1.0000 </r>
       <r>    4.5877    1.0000 </r>
       <r>    5.3602    1.0000 </r>
       <r>    6.7329    1.0000 </r>
       <r>    7.3476    1.0000 </r>
       <r>    9.1258   -0.0000 </r>
       <r>    9.8969    0.0000 </r>
       <r>   11.2608    0.0000 </r>
       <r>   11.8758    0.0000 </r>
       <r>   12.0002    0.0000 </r>
       <r>   12.6239    0.0000 </r>
      </set>
      <set comment="kpoint 19">
       <r>   -2.4511    1.0000 </r>
       <r>    1.5796    1.0000 </r>
       <r>    5.7534    1.0000 </r>
       <r>    5.7534    1.0000 </r>
       <r>    7.1957    1.0000 </r>
       <r>    7.1957    1.0000 </r>
       <r>    9.6136    0.0000 </r>
       <r>    9.6136    0.0000 </r>
       <r>   11.0204    0.0000 </r>
       <r>   11.1807    0.0000 </r>
       <r>   11.1807    0.0000 </r>
       <r>   12.2565    0.0000 </r>
      </set>
      <set comment="kpoint 20">
       <r>   -2.3756    1.0000 </r>
       <r>    1.6528    1.0000 </r>
       <r>    4.8114    1.0000 </r>
       <r>    5.7970    1.0000 </r>
       <r>    7.2667    1.0000 </r>
       <r>    8.2385   -0.0000 </r>
       <r>    8.7661   -0.0000 </r>
       <r>    9.6883    0.0000 </r>
       <r>   11.0644    0.0000 </r>
       <r>   11.2744    0.0000 </r>
       <r>   11.4630    0.0000 </r>
       <r>   12.1699    0.0000 </r>
      </set>
      <set comment="kpoint 21">
       <r>   -2.1493    1.0000 </r>
       <r>    1.8723    1.0000 </r>
       <r>    3.5090    1.0000 </r>
       <r>    5.9281    1.0000 </r>
       <r>    7.1882    1.0000 </r>
       <r>    7.8823    1.0002 </r>
       <r>    9.5327    0.0000 </r>
       <r>   10.2187    0.0000 </r>
       <r>   10.3287    0.0000 </r>
       <r>   11.2863    0.0000 </r>
       <r>   11.5589    0.0000 </r>
       <r>   13.7284    0.0000 </r>
      </set>
      <set comment="kpoint 22">
       <r>   -1.7731    1.0000 </r>
       <r>    2.2371    1.0000 </r>
       <r>    2.2910    1.0000 </r>
       <r>    6.0007    1.0000 </r>
       <r>    6.3646    1.0000 </r>
       <r>    8.1574   -0.0007 </r>
       <r>    9.3294   -0.0000 </r>
       <r>    9.9545    0.0000 </r>
       <r>   11.5101    0.0000 </r>
       <r>   11.7257    0.0000 </r>
       <r>   12.1882    0.0000 </r>
       <r>   12.8961    0.0000 </r>
      </set>
      <set comment="kpoint 23">
       <r>   -1.2482    1.0000 </r>
       <r>    1.1977    1.0000 </r>
       <r>    2.7459    1.0000 </r>
       <r>    5.0993    1.0000 </r>
       <r>    6.5922    1.0000 </r>
       <r>    8.4471   -0.0000 </r>
       <r>    8.7529   -0.0000 </r>
       <r>   10.3496    0.0000 </r>
       <r>   11.2622    0.0000 </r>
       <r>   12.2221    0.0000 </r>
       <r>   12.4918    0.0000 </r>
       <r>   12.5109    0.0000 </r>
      </set>
      <set comment="kpoint 24">
       <r>   -0.5763    1.0000 </r>
       <r>    0.2401    1.0000 </r>
       <r>    3.3966    1.0000 </r>
       <r>    4.1848    1.0000 </r>
       <r>    7.0746    1.0000 </r>
       <r>    7.6943    1.0000 </r>
       <r>    9.5082    0.0000 </r>
       <r>   10.3838    0.0000 </r>
       <r>   10.8516    0.0000 </r>
       <r>   11.4747    0.0000 </r>
       <r>   12.9430    0.0000 </r>
       <r>   13.2695    0.0000 </r>
      </set>
      <set comment="kpoint 25">
       <r>   -1.9310    1.0000 </r>
       <r>    0.4939    1.0000 </r>
       <r>    6.2088    1.0000 </r>
       <r>    6.2088    1.0000 </r>
       <r>    7.6710    1.0000 </r>
       <r>    7.6710    1.0000 </r>
       <r>    8.6064   -0.0000 </r>
       <r>    8.6064   -0.0000 </r>
       <r>   10.2070    0.0000 </r>
       <r>   10.2070    0.0000 </r>
       <r>   12.7093    0.0000 </r>
       <r>   12.9432    0.0000 </r>
      </set>
      <set comment="kpoint 26">
       <r>   -1.8558    1.0000 </r>
       <r>    0.5677    1.0000 </r>
       <r>    5.2926    1.0000 </r>
       <r>    6.2420    1.0000 </r>
       <r>    7.4766    1.0000 </r>
       <r>    8.0487    0.1747 </r>
       <r>    8.4097   -0.0000 </r>
       <r>    8.9407   -0.0000 </r>
       <r>   10.3203    0.0000 </r>
       <r>   11.1917    0.0000 </r>
       <r>   11.8981    0.0000 </r>
       <r>   13.0455    0.0000 </r>
      </set>
      <set comment="kpoint 27">
       <r>   -1.6304    1.0000 </r>
       <r>    0.7891    1.0000 </r>
       <r>    4.0030    1.0000 </r>
       <r>    6.1393    1.0000 </r>
       <r>    6.6058    1.0000 </r>
       <r>    8.1911   -0.0000 </r>
       <r>    8.6834   -0.0000 </r>
       <r>   10.2335    0.0000 </r>
       <r>   10.8148    0.0000 </r>
       <r>   10.8524    0.0000 </r>
       <r>   12.8107    0.0000 </r>
       <r>   13.0628    0.0000 </r>
      </set>
      <set comment="kpoint 28">
       <r>   -1.2556    1.0000 </r>
       <r>    1.1571    1.0000 </r>
       <r>    2.7920    1.0000 </r>
       <r>    5.1089    1.0000 </r>
       <r>    6.7136    1.0000 </r>
       <r>    8.6328   -0.0000 </r>
       <r>    8.9532   -0.0000 </r>
       <r>    9.8135    0.0000 </r>
       <r>   10.8960    0.0000 </r>
       <r>   12.0743    0.0000 </r>
       <r>   12.4736    0.0000 </r>
       <r>   12.8658    0.0000 </r>
      </set>
      <set comment="kpoint 29">
       <r>   -0.7327    1.0000 </r>
       <r>    1.6706    1.0000 </r>
       <r>    1.7036    1.0000 </r>
       <r>    4.0570    1.0000 </r>
       <r>    7.0680    1.0000 </r>
       <r>    8.9316   -0.0000 </r>
       <r>    9.2469   -0.0000 </r>
       <r>    9.3301   -0.0000 </r>
       <r>   11.2004    0.0000 </r>
       <r>   11.5256    0.0000 </r>
       <r>   11.9056    0.0000 </r>
       <r>   14.1906    0.0000 </r>
      </set>
      <set comment="kpoint 30">
       <r>   -0.0634    1.0000 </r>
       <r>    0.7499    1.0000 </r>
       <r>    2.3276    1.0000 </r>
       <r>    3.1249    1.0000 </r>
       <r>    7.5573    1.0000 </r>
       <r>    8.1786   -0.0001 </r>
       <r>    9.8275    0.0000 </r>
       <r>   10.0112    0.0000 </r>
       <r>   10.4505    0.0000 </r>
       <r>   10.9081    0.0000 </r>
       <r>   12.2851    0.0000 </r>
       <r>   13.1772    0.0000 </r>
      </set>
      <set comment="kpoint 31">
       <r>   -1.2652    1.0000 </r>
       <r>   -0.4559    1.0000 </r>
       <r>    6.7274    1.0000 </r>
       <r>    6.7274    1.0000 </r>
       <r>    7.8118    1.0000 </r>
       <r>    7.8118    1.0000 </r>
       <r>    8.1858   -0.0000 </r>
       <r>    8.1858   -0.0000 </r>
       <r>    9.4370    0.0000 </r>
       <r>    9.4370    0.0000 </r>
       <r>   13.2919    0.0000 </r>
       <r>   14.0043    0.0000 </r>
      </set>
      <set comment="kpoint 32">
       <r>   -1.1903    1.0000 </r>
       <r>   -0.3815    1.0000 </r>
       <r>    5.8955    1.0000 </r>
       <r>    6.4959    1.0000 </r>
       <r>    7.1095    1.0000 </r>
       <r>    7.6994    1.0000 </r>
       <r>    8.4815   -0.0000 </r>
       <r>    9.0287   -0.0000 </r>
       <r>    9.8088    0.0000 </r>
       <r>   10.3443    0.0000 </r>
       <r>   12.5087    0.0000 </r>
       <r>   13.2477    0.0000 </r>
      </set>
      <set comment="kpoint 33">
       <r>   -0.9661    1.0000 </r>
       <r>   -0.1586    1.0000 </r>
       <r>    4.6326    1.0000 </r>
       <r>    5.3864    1.0000 </r>
       <r>    7.0882    1.0000 </r>
       <r>    7.8213    1.0000 </r>
       <r>    8.7983   -0.0000 </r>
       <r>    9.5387    0.0000 </r>
       <r>   11.2481    0.0000 </r>
       <r>   11.4309    0.0000 </r>
       <r>   11.9617    0.0000 </r>
       <r>   12.1802    0.0000 </r>
      </set>
      <set comment="kpoint 34">
       <r>   -0.5931    1.0000 </r>
       <r>    0.2121    1.0000 </r>
       <r>    3.4325    1.0000 </r>
       <r>    4.2085    1.0000 </r>
       <r>    7.3213    1.0000 </r>
       <r>    8.0707   -0.0045 </r>
       <r>    9.2607   -0.0000 </r>
       <r>   10.0218    0.0000 </r>
       <r>   10.4329    0.0000 </r>
       <r>   11.1871    0.0000 </r>
       <r>   13.0541    0.0000 </r>
       <r>   13.6511    0.0000 </r>
      </set>
      <set comment="kpoint 35">
       <r>   -0.0727    1.0000 </r>
       <r>    0.7294    1.0000 </r>
       <r>    2.3510    1.0000 </r>
       <r>    3.1371    1.0000 </r>
       <r>    7.6857    1.0000 </r>
       <r>    8.4406   -0.0000 </r>
       <r>    9.5527    0.0000 </r>
       <r>    9.8787    0.0000 </r>
       <r>   10.3095    0.0000 </r>
       <r>   10.6416    0.0000 </r>
       <r>   12.5619    0.0000 </r>
       <r>   13.3210    0.0000 </r>
      </set>
      <set comment="kpoint 36">
       <r>    0.5933    1.0000 </r>
       <r>    1.3914    1.0000 </r>
       <r>    1.4025    1.0000 </r>
       <r>    2.1954    1.0000 </r>
       <r>    8.1780   -0.0001 </r>
       <r>    8.8002   -0.0000 </r>
       <r>    8.9353   -0.0000 </r>
       <r>    9.5580    0.0000 </r>
       <r>   10.6440    0.0000 </r>
       <r>   11.4045    0.0000 </r>
       <r>   11.5446    0.0000 </r>
       <r>   12.3025    0.0000 </r>
      </set>
      <set comment="kpoint 37">
       <r>   -2.9892    1.0000 </r>
       <r>    4.4091    1.0000 </r>
       <r>    4.4091    1.0000 </r>
       <r>    5.2074    1.0000 </r>
       <r>    6.5019    1.0000 </r>
       <r>    7.5431    1.0000 </r>
       <r>    7.5431    1.0000 </r>
       <r>    9.6175    0.0000 </r>
       <r>   12.2961    0.0000 </r>
       <r>   12.2961    0.0000 </r>
       <r>   13.3687    0.0000 </r>
       <r>   13.3687    0.0000 </r>
      </set>
      <set comment="kpoint 38">
       <r>   -2.7802    1.0000 </r>
       <r>    3.0932    1.0000 </r>
       <r>    4.7667    1.0000 </r>
       <r>    5.3992    1.0000 </r>
       <r>    6.7039    1.0000 </r>
       <r>    7.5818    1.0000 </r>
       <r>    8.4773   -0.0000 </r>
       <r>    9.2192   -0.0000 </r>
       <r>   10.9549    0.0000 </r>
       <r>   12.3788    0.0000 </r>
       <r>   12.6746    0.0000 </r>
       <r>   13.6545    0.0000 </r>
      </set>
      <set comment="kpoint 39">
       <r>   -2.4204    1.0000 </r>
       <r>    1.8551    1.0000 </r>
       <r>    5.2527    1.0000 </r>
       <r>    5.7300    1.0000 </r>
       <r>    7.0378    1.0000 </r>
       <r>    7.4624    1.0000 </r>
       <r>    7.7681    1.0000 </r>
       <r>    9.7498    0.0000 </r>
       <r>   11.0701    0.0000 </r>
       <r>   11.3069    0.0000 </r>
       <r>   13.1943    0.0000 </r>
       <r>   13.7684    0.0000 </r>
      </set>
      <set comment="kpoint 40">
       <r>   -1.9109    1.0000 </r>
       <r>    0.7412    1.0000 </r>
       <r>    5.8573    1.0000 </r>
       <r>    6.2001    1.0000 </r>
       <r>    6.5454    1.0000 </r>
       <r>    7.5382    1.0000 </r>
       <r>    8.0984   -0.0311 </r>
       <r>    8.6848   -0.0000 </r>
       <r>   10.3107    0.0000 </r>
       <r>   12.6226    0.0000 </r>
       <r>   13.0308    0.0000 </r>
       <r>   13.8552    0.0000 </r>
      </set>
      <set comment="kpoint 41">
       <r>   -1.2536    1.0000 </r>
       <r>   -0.2370    1.0000 </r>
       <r>    5.7885    1.0000 </r>
       <r>    6.5590    1.0000 </r>
       <r>    6.8100    1.0000 </r>
       <r>    7.7606    1.0000 </r>
       <r>    8.1311   -0.0063 </r>
       <r>    8.5273   -0.0000 </r>
       <r>    9.4989    0.0000 </r>
       <r>   11.5883    0.0000 </r>
       <r>   13.5638    0.0000 </r>
       <r>   14.6568    0.0000 </r>
      </set>
      <set comment="kpoint 42">
       <r>   -1.0740    1.0000 </r>
       <r>   -0.4506    1.0000 </r>
       <r>    5.1683    1.0000 </r>
       <r>    6.9769    1.0000 </r>
       <r>    7.2680    1.0000 </r>
       <r>    7.5599    1.0000 </r>
       <r>    8.5708   -0.0000 </r>
       <r>    8.7759   -0.0000 </r>
       <r>    9.4573    0.0000 </r>
       <r>   10.7576    0.0000 </r>
       <r>   12.9678    0.0000 </r>
       <r>   13.9864    0.0000 </r>
      </set>
      <set comment="kpoint 43">
       <r>   -1.7662    1.0000 </r>
       <r>    0.4948    1.0000 </r>
       <r>    4.6886    1.0000 </r>
       <r>    6.3335    1.0000 </r>
       <r>    7.4521    1.0000 </r>
       <r>    8.4502   -0.0000 </r>
       <r>    8.7540   -0.0000 </r>
       <r>    9.1015   -0.0000 </r>
       <r>   10.1879    0.0000 </r>
       <r>   10.5019    0.0000 </r>
       <r>   12.5086    0.0000 </r>
       <r>   13.0665    0.0000 </r>
      </set>
      <set comment="kpoint 44">
       <r>   -2.3113    1.0000 </r>
       <r>    1.5780    1.0000 </r>
       <r>    4.3506    1.0000 </r>
       <r>    5.8299    1.0000 </r>
       <r>    7.0907    1.0000 </r>
       <r>    8.7435   -0.0000 </r>
       <r>    9.4812    0.0000 </r>
       <r>    9.6590    0.0000 </r>
       <r>   11.0947    0.0000 </r>
       <r>   11.1748    0.0000 </r>
       <r>   11.4165    0.0000 </r>
       <r>   12.1873    0.0000 </r>
      </set>
      <set comment="kpoint 45">
       <r>   -2.7072    1.0000 </r>
       <r>    2.7899    1.0000 </r>
       <r>    4.1546    1.0000 </r>
       <r>    5.4657    1.0000 </r>
       <r>    6.7497    1.0000 </r>
       <r>    8.2745   -0.0000 </r>
       <r>    9.6026    0.0000 </r>
       <r>   10.6525    0.0000 </r>
       <r>   10.7721    0.0000 </r>
       <r>   11.9535    0.0000 </r>
       <r>   12.0047    0.0000 </r>
       <r>   12.1705    0.0000 </r>
      </set>
      <set comment="kpoint 46">
       <r>   -2.9526    1.0000 </r>
       <r>    4.1001    1.0000 </r>
       <r>    4.1001    1.0000 </r>
       <r>    5.2407    1.0000 </r>
       <r>    6.5275    1.0000 </r>
       <r>    7.8977    1.0007 </r>
       <r>    7.8977    1.0007 </r>
       <r>   11.8224    0.0000 </r>
       <r>   11.9616    0.0000 </r>
       <r>   11.9616    0.0000 </r>
       <r>   12.1122    0.0000 </r>
       <r>   13.1796    0.0000 </r>
      </set>
      <set comment="kpoint 47">
       <r>   -2.9145    1.0000 </r>
       <r>    4.2261    1.0000 </r>
       <r>    4.4783    1.0000 </r>
       <r>    4.4783    1.0000 </r>
       <r>    7.6111    1.0000 </r>
       <r>    7.6132    1.0000 </r>
       <r>    7.6132    1.0000 </r>
       <r>    9.6869    0.0000 </r>
       <r>   11.3413    0.0000 </r>
       <r>   11.3413    0.0000 </r>
       <r>   13.9004    0.0000 </r>
       <r>   13.9004    0.0000 </r>
      </set>
      <set comment="kpoint 48">
       <r>   -2.7056    1.0000 </r>
       <r>    3.1641    1.0000 </r>
       <r>    4.4231    1.0000 </r>
       <r>    4.8347    1.0000 </r>
       <r>    7.6520    1.0000 </r>
       <r>    7.8053    1.0000 </r>
       <r>    8.5492   -0.0000 </r>
       <r>    9.2862   -0.0000 </r>
       <r>   10.0734    0.0000 </r>
       <r>   11.6954    0.0000 </r>
       <r>   13.3299    0.0000 </r>
       <r>   14.0318    0.0000 </r>
      </set>
      <set comment="kpoint 49">
       <r>   -2.3460    1.0000 </r>
       <r>    1.9270    1.0000 </r>
       <r>    4.7620    1.0000 </r>
       <r>    5.3175    1.0000 </r>
       <r>    7.5127    1.0000 </r>
       <r>    7.8340    1.0000 </r>
       <r>    8.1513   -0.0013 </r>
       <r>    8.8968   -0.0000 </r>
       <r>   11.1289    0.0000 </r>
       <r>   12.1892    0.0000 </r>
       <r>   12.2813    0.0000 </r>
       <r>   13.8385    0.0000 </r>
      </set>
      <set comment="kpoint 50">
       <r>   -1.8368    1.0000 </r>
       <r>    0.8138    1.0000 </r>
       <r>    5.2412    1.0000 </r>
       <r>    5.9097    1.0000 </r>
       <r>    6.6218    1.0000 </r>
       <r>    7.7990    1.0000 </r>
       <r>    8.2245   -0.0000 </r>
       <r>    8.6121   -0.0000 </r>
       <r>   11.2804    0.0000 </r>
       <r>   12.6982    0.0000 </r>
       <r>   12.7537    0.0000 </r>
       <r>   13.1414    0.0000 </r>
      </set>
      <set comment="kpoint 51">
       <r>   -1.1799    1.0000 </r>
       <r>   -0.1638    1.0000 </r>
       <r>    5.8078    1.0000 </r>
       <r>    5.9151    1.0000 </r>
       <r>    6.4579    1.0000 </r>
       <r>    7.0705    1.0000 </r>
       <r>    8.6753   -0.0000 </r>
       <r>    9.1803   -0.0000 </r>
       <r>   10.4079    0.0000 </r>
       <r>   11.6817    0.0000 </r>
       <r>   12.6238    0.0000 </r>
       <r>   13.5260    0.0000 </r>
      </set>
      <set comment="kpoint 52">
       <r>   -1.0003    1.0000 </r>
       <r>   -0.3773    1.0000 </r>
       <r>    5.2375    1.0000 </r>
       <r>    5.9941    1.0000 </r>
       <r>    6.6194    1.0000 </r>
       <r>    7.5509    1.0000 </r>
       <r>    9.1660   -0.0000 </r>
       <r>    9.7020    0.0000 </r>
       <r>    9.8290    0.0000 </r>
       <r>   10.9690    0.0000 </r>
       <r>   12.0136    0.0000 </r>
       <r>   14.3881    0.0000 </r>
      </set>
      <set comment="kpoint 53">
       <r>   -1.6922    1.0000 </r>
       <r>    0.5676    1.0000 </r>
       <r>    4.7587    1.0000 </r>
       <r>    5.3664    1.0000 </r>
       <r>    7.4952    1.0000 </r>
       <r>    8.2377   -0.0000 </r>
       <r>    9.1033   -0.0000 </r>
       <r>    9.5420    0.0000 </r>
       <r>   10.2872    0.0000 </r>
       <r>   11.2099    0.0000 </r>
       <r>   11.5222    0.0000 </r>
       <r>   13.5668    0.0000 </r>
      </set>
      <set comment="kpoint 54">
       <r>   -2.2370    1.0000 </r>
       <r>    1.6502    1.0000 </r>
       <r>    4.4209    1.0000 </r>
       <r>    4.8593    1.0000 </r>
       <r>    8.1534   -0.0011 </r>
       <r>    8.3706   -0.0000 </r>
       <r>    9.1292   -0.0000 </r>
       <r>    9.7564    0.0000 </r>
       <r>   11.0307    0.0000 </r>
       <r>   11.1715    0.0000 </r>
       <r>   11.8186    0.0000 </r>
       <r>   12.0852    0.0000 </r>
      </set>
      <set comment="kpoint 55">
       <r>   -2.6326    1.0000 </r>
       <r>    2.8613    1.0000 </r>
       <r>    4.2249    1.0000 </r>
       <r>    4.4890    1.0000 </r>
       <r>    7.8461    1.0000 </r>
       <r>    8.3108   -0.0000 </r>
       <r>    9.6359    0.0000 </r>
       <r>    9.8364    0.0000 </r>
       <r>   10.8468    0.0000 </r>
       <r>   11.1560    0.0000 </r>
       <r>   12.0241    0.0000 </r>
       <r>   13.1058    0.0000 </r>
      </set>
      <set comment="kpoint 56">
       <r>   -2.8779    1.0000 </r>
       <r>    4.1702    1.0000 </r>
       <r>    4.1702    1.0000 </r>
       <r>    4.2593    1.0000 </r>
       <r>    7.6347    1.0000 </r>
       <r>    7.9608    1.0339 </r>
       <r>    7.9608    1.0339 </r>
       <r>   11.0559    0.0000 </r>
       <r>   11.0559    0.0000 </r>
       <r>   11.8870    0.0000 </r>
       <r>   12.1871    0.0000 </r>
       <r>   13.9179    0.0000 </r>
      </set>
      <set comment="kpoint 57">
       <r>   -2.6906    1.0000 </r>
       <r>    2.9202    1.0000 </r>
       <r>    4.6851    1.0000 </r>
       <r>    4.6851    1.0000 </r>
       <r>    7.8222    1.0000 </r>
       <r>    7.8222    1.0000 </r>
       <r>    9.2960   -0.0000 </r>
       <r>    9.8988    0.0000 </r>
       <r>   10.0916    0.0000 </r>
       <r>   10.0916    0.0000 </r>
       <r>   13.1145    0.0000 </r>
       <r>   13.1145    0.0000 </r>
      </set>
      <set comment="kpoint 58">
       <r>   -2.4821    1.0000 </r>
       <r>    3.1201    1.0000 </r>
       <r>    3.3764    1.0000 </r>
       <r>    5.0366    1.0000 </r>
       <r>    7.8591    1.0000 </r>
       <r>    8.7473   -0.0000 </r>
       <r>    8.8455   -0.0000 </r>
       <r>    9.4838    0.0000 </r>
       <r>    9.5011    0.0000 </r>
       <r>   10.4394    0.0000 </r>
       <r>   13.1667    0.0000 </r>
       <r>   13.9905    0.0000 </r>
      </set>
      <set comment="kpoint 59">
       <r>   -2.1231    1.0000 </r>
       <r>    2.1424    1.0000 </r>
       <r>    3.4640    1.0000 </r>
       <r>    5.5039    1.0000 </r>
       <r>    7.6331    1.0000 </r>
       <r>    7.7264    1.0000 </r>
       <r>    8.0933   -0.0343 </r>
       <r>    9.8210    0.0000 </r>
       <r>   10.8996    0.0000 </r>
       <r>   11.3294    0.0000 </r>
       <r>   12.9990    0.0000 </r>
       <r>   13.3775    0.0000 </r>
      </set>
      <set comment="kpoint 60">
       <r>   -1.6148    1.0000 </r>
       <r>    1.0314    1.0000 </r>
       <r>    3.9507    1.0000 </r>
       <r>    5.9648    1.0000 </r>
       <r>    6.7356    1.0000 </r>
       <r>    6.8325    1.0000 </r>
       <r>    8.4149   -0.0000 </r>
       <r>   10.2567    0.0000 </r>
       <r>   11.5190    0.0000 </r>
       <r>   12.1280    0.0000 </r>
       <r>   12.8755    0.0000 </r>
       <r>   12.9328    0.0000 </r>
      </set>
      <set comment="kpoint 61">
       <r>   -0.9588    1.0000 </r>
       <r>    0.0555    1.0000 </r>
       <r>    4.5774    1.0000 </r>
       <r>    5.4960    1.0000 </r>
       <r>    6.0749    1.0000 </r>
       <r>    6.9983    1.0000 </r>
       <r>    8.9060   -0.0000 </r>
       <r>   10.7037    0.0000 </r>
       <r>   11.3852    0.0000 </r>
       <r>   12.0048    0.0000 </r>
       <r>   12.0282    0.0000 </r>
       <r>   12.2537    0.0000 </r>
      </set>
      <set comment="kpoint 62">
       <r>   -0.7796    1.0000 </r>
       <r>   -0.1576    1.0000 </r>
       <r>    4.7349    1.0000 </r>
       <r>    5.3117    1.0000 </r>
       <r>    5.4866    1.0000 </r>
       <r>    7.7948    1.0000 </r>
       <r>    9.5356    0.0000 </r>
       <r>   10.5414    0.0000 </r>
       <r>   10.7733    0.0000 </r>
       <r>   11.2736    0.0000 </r>
       <r>   11.9838    0.0000 </r>
       <r>   13.1043    0.0000 </r>
      </set>
      <set comment="kpoint 63">
       <r>   -1.4704    1.0000 </r>
       <r>    0.7857    1.0000 </r>
       <r>    4.0825    1.0000 </r>
       <r>    4.9677    1.0000 </r>
       <r>    6.2485    1.0000 </r>
       <r>    8.7030   -0.0000 </r>
       <r>    9.8646    0.0000 </r>
       <r>   10.1570    0.0000 </r>
       <r>   10.2905    0.0000 </r>
       <r>   10.8520    0.0000 </r>
       <r>   12.7081    0.0000 </r>
       <r>   13.8877    0.0000 </r>
      </set>
      <set comment="kpoint 64">
       <r>   -2.0142    1.0000 </r>
       <r>    1.8665    1.0000 </r>
       <r>    3.5649    1.0000 </r>
       <r>    4.6315    1.0000 </r>
       <r>    7.2534    1.0000 </r>
       <r>    9.2482   -0.0000 </r>
       <r>    9.5062    0.0000 </r>
       <r>    9.9207    0.0000 </r>
       <r>   10.2451    0.0000 </r>
       <r>   11.4227    0.0000 </r>
       <r>   11.9287    0.0000 </r>
       <r>   13.6109    0.0000 </r>
      </set>
      <set comment="kpoint 65">
       <r>   -2.4092    1.0000 </r>
       <r>    3.0752    1.0000 </r>
       <r>    3.1880    1.0000 </r>
       <r>    4.4356    1.0000 </r>
       <r>    8.1656   -0.0003 </r>
       <r>    8.9678   -0.0000 </r>
       <r>    9.4765    0.0000 </r>
       <r>    9.4890    0.0000 </r>
       <r>   10.2949    0.0000 </r>
       <r>   11.0835    0.0000 </r>
       <r>   12.2402    0.0000 </r>
       <r>   13.7870    0.0000 </r>
      </set>
      <set comment="kpoint 66">
       <r>   -2.6541    1.0000 </r>
       <r>    2.9543    1.0000 </r>
       <r>    4.3804    1.0000 </r>
       <r>    4.3804    1.0000 </r>
       <r>    8.1333   -0.0054 </r>
       <r>    8.1333   -0.0054 </r>
       <r>    9.3133   -0.0000 </r>
       <r>    9.8557    0.0000 </r>
       <r>    9.8557    0.0000 </r>
       <r>   12.0809    0.0000 </r>
       <r>   12.4149    0.0000 </r>
       <r>   13.4305    0.0000 </r>
      </set>
      <set comment="kpoint 67">
       <r>   -2.3183    1.0000 </r>
       <r>    1.7086    1.0000 </r>
       <r>    5.0269    1.0000 </r>
       <r>    5.0269    1.0000 </r>
       <r>    8.1654   -0.0003 </r>
       <r>    8.1654   -0.0003 </r>
       <r>    8.9414   -0.0000 </r>
       <r>    8.9414   -0.0000 </r>
       <r>   10.2279    0.0000 </r>
       <r>   11.1596    0.0000 </r>
       <r>   12.0772    0.0000 </r>
       <r>   12.0772    0.0000 </r>
      </set>
      <set comment="kpoint 68">
       <r>   -2.1104    1.0000 </r>
       <r>    1.9105    1.0000 </r>
       <r>    3.7288    1.0000 </r>
       <r>    5.3632    1.0000 </r>
       <r>    7.6817    1.0000 </r>
       <r>    8.2343   -0.0000 </r>
       <r>    9.0964   -0.0000 </r>
       <r>    9.2772   -0.0000 </r>
       <r>    9.8058    0.0000 </r>
       <r>   11.3418    0.0000 </r>
       <r>   12.1468    0.0000 </r>
       <r>   12.8568    0.0000 </r>
      </set>
      <set comment="kpoint 69">
       <r>   -1.7523    1.0000 </r>
       <r>    2.2580    1.0000 </r>
       <r>    2.5004    1.0000 </r>
       <r>    5.7256    1.0000 </r>
       <r>    6.6160    1.0000 </r>
       <r>    8.0752   -0.0195 </r>
       <r>    8.4226   -0.0000 </r>
       <r>    9.7544    0.0000 </r>
       <r>   11.4970    0.0000 </r>
       <r>   11.6422    0.0000 </r>
       <r>   11.8581    0.0000 </r>
       <r>   12.4879    0.0000 </r>
      </set>
      <set comment="kpoint 70">
       <r>   -1.2454    1.0000 </r>
       <r>    1.3932    1.0000 </r>
       <r>    2.7499    1.0000 </r>
       <r>    5.2423    1.0000 </r>
       <r>    6.6351    1.0000 </r>
       <r>    7.1823    1.0000 </r>
       <r>    8.7667   -0.0000 </r>
       <r>   10.3618    0.0000 </r>
       <r>   10.9818    0.0000 </r>
       <r>   11.9836    0.0000 </r>
       <r>   12.4334    0.0000 </r>
       <r>   13.3841    0.0000 </r>
      </set>
      <set comment="kpoint 71">
       <r>   -0.5913    1.0000 </r>
       <r>    0.4202    1.0000 </r>
       <r>    3.3843    1.0000 </r>
       <r>    4.3484    1.0000 </r>
       <r>    6.4249    1.0000 </r>
       <r>    7.3159    1.0000 </r>
       <r>    9.2636   -0.0000 </r>
       <r>   10.2354    0.0000 </r>
       <r>   11.0932    0.0000 </r>
       <r>   11.8112    0.0000 </r>
       <r>   12.9825    0.0000 </r>
       <r>   13.0881    0.0000 </r>
      </set>
      <set comment="kpoint 72">
       <r>   -0.4126    1.0000 </r>
       <r>    0.2078    1.0000 </r>
       <r>    3.5512    1.0000 </r>
       <r>    4.1576    1.0000 </r>
       <r>    5.8070    1.0000 </r>
       <r>    8.1484   -0.0017 </r>
       <r>    9.6223    0.0000 </r>
       <r>    9.9090    0.0000 </r>
       <r>   11.0208    0.0000 </r>
       <r>   11.9415    0.0000 </r>
       <r>   13.0528    0.0000 </r>
       <r>   13.6233    0.0000 </r>
      </set>
      <set comment="kpoint 73">
       <r>   -1.1014    1.0000 </r>
       <r>    1.1486    1.0000 </r>
       <r>    2.8864    1.0000 </r>
       <r>    5.0482    1.0000 </r>
       <r>    5.3478    1.0000 </r>
       <r>    9.0898   -0.0000 </r>
       <r>    9.1432   -0.0000 </r>
       <r>   10.2431    0.0000 </r>
       <r>   10.6800    0.0000 </r>
       <r>   12.4658    0.0000 </r>
       <r>   12.8981    0.0000 </r>
       <r>   13.9530    0.0000 </r>
      </set>
      <set comment="kpoint 74">
       <r>   -1.6438    1.0000 </r>
       <r>    2.2262    1.0000 </r>
       <r>    2.3616    1.0000 </r>
       <r>    4.9794    1.0000 </r>
       <r>    6.1152    1.0000 </r>
       <r>    8.7947   -0.0000 </r>
       <r>    9.5852    0.0000 </r>
       <r>   10.1138    0.0000 </r>
       <r>   11.4199    0.0000 </r>
       <r>   12.1703    0.0000 </r>
       <r>   12.2502    0.0000 </r>
       <r>   13.3083    0.0000 </r>
      </set>
      <set comment="kpoint 75">
       <r>   -2.0377    1.0000 </r>
       <r>    1.9800    1.0000 </r>
       <r>    3.4308    1.0000 </r>
       <r>    4.7854    1.0000 </r>
       <r>    7.2429    1.0000 </r>
       <r>    8.5566   -0.0000 </r>
       <r>    9.0877   -0.0000 </r>
       <r>   10.4097    0.0000 </r>
       <r>   11.0327    0.0000 </r>
       <r>   11.6702    0.0000 </r>
       <r>   12.6401    0.0000 </r>
       <r>   12.7903    0.0000 </r>
      </set>
      <set comment="kpoint 76">
       <r>   -2.2819    1.0000 </r>
       <r>    1.7435    1.0000 </r>
       <r>    4.7295    1.0000 </r>
       <r>    4.7295    1.0000 </r>
       <r>    8.1972   -0.0000 </r>
       <r>    8.1972   -0.0000 </r>
       <r>    8.9895   -0.0000 </r>
       <r>    8.9895   -0.0000 </r>
       <r>   11.1214    0.0000 </r>
       <r>   12.4043    0.0000 </r>
       <r>   12.4096    0.0000 </r>
       <r>   12.4096    0.0000 </r>
      </set>
      <set comment="kpoint 77">
       <r>   -1.7987    1.0000 </r>
       <r>    0.6238    1.0000 </r>
       <r>    5.4939    1.0000 </r>
       <r>    5.4939    1.0000 </r>
       <r>    7.9279    1.0082 </r>
       <r>    7.9279    1.0082 </r>
       <r>    8.6308   -0.0000 </r>
       <r>    8.6308   -0.0000 </r>
       <r>   10.7105    0.0000 </r>
       <r>   11.1156    0.0000 </r>
       <r>   11.1156    0.0000 </r>
       <r>   12.9534    0.0000 </r>
      </set>
      <set comment="kpoint 78">
       <r>   -1.5916    1.0000 </r>
       <r>    0.8274    1.0000 </r>
       <r>    4.2182    1.0000 </r>
       <r>    5.7451    1.0000 </r>
       <r>    6.7573    1.0000 </r>
       <r>    8.2537   -0.0000 </r>
       <r>    8.7073   -0.0000 </r>
       <r>    9.5804    0.0000 </r>
       <r>   10.1507    0.0000 </r>
       <r>   11.2930    0.0000 </r>
       <r>   11.8420    0.0000 </r>
       <r>   12.6870    0.0000 </r>
      </set>
      <set comment="kpoint 79">
       <r>   -1.2349    1.0000 </r>
       <r>    1.1778    1.0000 </r>
       <r>    2.9993    1.0000 </r>
       <r>    5.2550    1.0000 </r>
       <r>    6.5270    1.0000 </r>
       <r>    8.5618   -0.0000 </r>
       <r>    8.7262   -0.0000 </r>
       <r>    8.9105   -0.0000 </r>
       <r>   10.8370    0.0000 </r>
       <r>   11.0682    0.0000 </r>
       <r>   12.4027    0.0000 </r>
       <r>   13.5276    0.0000 </r>
      </set>
      <set comment="kpoint 80">
       <r>   -0.7299    1.0000 </r>
       <r>    1.6739    1.0000 </r>
       <r>    1.8979    1.0000 </r>
       <r>    4.2360    1.0000 </r>
       <r>    7.0726    1.0000 </r>
       <r>    7.6709    1.0000 </r>
       <r>    9.2584   -0.0000 </r>
       <r>    9.3323   -0.0000 </r>
       <r>    9.9560    0.0000 </r>
       <r>   11.5022    0.0000 </r>
       <r>   13.3343    0.0000 </r>
       <r>   14.2674    0.0000 </r>
      </set>
      <set comment="kpoint 81">
[...]
       <r>    0.4687    1.0000 </r>
       <r>    1.8949    1.0000 </r>
       <r>    2.2340    1.0000 </r>
       <r>    2.2340    1.0000 </r>
       <r>    5.9641    1.0000 </r>
       <r>    7.3426    1.0000 </r>
       <r>    7.7252    1.0000 </r>
       <r>    7.7252    1.0000 </r>
       <r>   12.2711    0.0000 </r>
       <r>   13.5989    0.0000 </r>
       <r>   13.9897    0.0000 </r>
       <r>   13.9897    0.0000 </r>
      </set>
      <set comment="kpoint 210">
       <r>    1.1922    1.0000 </r>
       <r>    1.1922    1.0000 </r>
       <r>    1.3468    1.0000 </r>
       <r>    3.1270    1.0000 </r>
       <r>    6.6626    1.0000 </r>
       <r>    6.6626    1.0000 </r>
       <r>    6.8696    1.0000 </r>
       <r>    8.5984   -0.0000 </r>
       <r>   12.9411    0.0000 </r>
       <r>   12.9411    0.0000 </r>
       <r>   13.1789    0.0000 </r>
       <r>   14.8043    0.0000 </r>
      </set>
      <set comment="kpoint 211">
       <r>    0.8325    1.0000 </r>
       <r>    2.2543    1.0000 </r>
       <r>    2.5884    1.0000 </r>
       <r>    2.5884    1.0000 </r>
       <r>    4.7803    1.0000 </r>
       <r>    6.1682    1.0000 </r>
       <r>    6.5591    1.0000 </r>
       <r>    6.5591    1.0000 </r>
       <r>   14.0726    0.0000 </r>
       <r>   15.3680    0.0000 </r>
       <r>   15.7027    0.0000 </r>
       <r>   15.7027    0.0000 </r>
      </set>
      <set comment="kpoint 212">
       <r>    1.5540    1.0000 </r>
       <r>    1.5540    1.0000 </r>
       <r>    1.7067    1.0000 </r>
       <r>    3.4669    1.0000 </r>
       <r>    5.4836    1.0000 </r>
       <r>    5.4836    1.0000 </r>
       <r>    5.7111    1.0000 </r>
       <r>    7.4339    1.0000 </r>
       <r>   14.7229    0.0000 </r>
       <r>   14.7229    0.0000 </r>
       <r>   14.9472    0.0000 </r>
       <r>   15.9663    0.0000 </r>
      </set>
      <set comment="kpoint 213">
       <r>    1.3401    1.0000 </r>
       <r>    2.7523    1.0000 </r>
       <r>    3.0757    1.0000 </r>
       <r>    3.0757    1.0000 </r>
       <r>    3.7238    1.0000 </r>
       <r>    5.1155    1.0000 </r>
       <r>    5.5229    1.0000 </r>
       <r>    5.5229    1.0000 </r>
       <r>   15.9750    0.0000 </r>
       <r>   16.5688    0.0000 </r>
       <r>   16.5688    0.0000 </r>
       <r>   17.2076    0.0000 </r>
      </set>
      <set comment="kpoint 214">
       <r>    2.0584    1.0000 </r>
       <r>    2.0584    1.0000 </r>
       <r>    2.2070    1.0000 </r>
       <r>    3.8684    1.0000 </r>
       <r>    4.4275    1.0000 </r>
       <r>    4.4275    1.0000 </r>
       <r>    4.7532    1.0000 </r>
       <r>    6.3918    1.0000 </r>
       <r>   16.4233    0.0000 </r>
       <r>   16.5822    0.0000 </r>
       <r>   16.5822    0.0000 </r>
       <r>   16.7593    0.0000 </r>
      </set>
      <set comment="kpoint 215">
       <r>    1.9894    1.0000 </r>
       <r>    2.7709    1.0000 </r>
       <r>    3.4210    1.0000 </r>
       <r>    3.6469    1.0000 </r>
       <r>    3.6469    1.0000 </r>
       <r>    4.1957    1.0000 </r>
       <r>    4.6755    1.0000 </r>
       <r>    4.6755    1.0000 </r>
       <r>   17.0820    0.0000 </r>
       <r>   17.0820    0.0000 </r>
       <r>   17.8631    0.0000 </r>
       <r>   17.8924    0.0000 </r>
      </set>
      <set comment="kpoint 216">
       <r>    2.6986    1.0000 </r>
       <r>    2.6986    1.0000 </r>
       <r>    2.8410    1.0000 </r>
       <r>    3.5100    1.0000 </r>
       <r>    3.5100    1.0000 </r>
       <r>    3.5719    1.0000 </r>
       <r>    4.7661    1.0000 </r>
       <r>    5.4893    1.0000 </r>
       <r>   17.0108    0.0000 </r>
       <r>   17.7253    0.0000 </r>
       <r>   18.2934    0.0000 </r>
       <r>   18.3716    0.0000 </r>
      </set>
     </set>
    </set>
   </array>
  </eigenvalues>
  <separator name="orbital magnetization" >
   <v name="MAGDIPOLOUT">      0.00000000      0.00000000      0.00000000</v>
  </separator>
  <dos>
   <i name="efermi">      8.02753835 </i>
   <total>
    <array>
     <dimension dim="1">gridpoints</dimension>
     <dimension dim="2">spin</dimension>
     <field>energy</field>
     <field>total</field>
     <field>integrated</field>
     <set>
      <set comment="spin 1">
       <r>    -4.1973     0.0000     0.0000 </r>
       <r>    -4.1185     0.0000     0.0000 </r>
       <r>    -4.0396     0.0000     0.0000 </r>
       <r>    -3.9608     0.0000     0.0000 </r>
       <r>    -3.8820     0.0000     0.0000 </r>
       <r>    -3.8032     0.0000     0.0000 </r>
       <r>    -3.7244     0.0000     0.0000 </r>
       <r>    -3.6456     0.0000     0.0000 </r>
       <r>    -3.5668    -0.0000    -0.0000 </r>
       <r>    -3.4880    -0.0000    -0.0000 </r>
       <r>    -3.4091    -0.0000    -0.0000 </r>
       <r>    -3.3303    -0.0000    -0.0000 </r>
       <r>    -3.2515    -0.0000    -0.0000 </r>
       <r>    -3.1727    -0.0006    -0.0000 </r>
       <r>    -3.0939     0.0155     0.0012 </r>
       <r>    -3.0151     0.1134     0.0101 </r>
       <r>    -2.9363     0.2308     0.0283 </r>
       <r>    -2.8575     0.1455     0.0398 </r>
       <r>    -2.7787     0.1759     0.0536 </r>
       <r>    -2.6998     0.4955     0.0927 </r>
       <r>    -2.6210     0.3250     0.1183 </r>
       <r>    -2.5422     0.1129     0.1272 </r>
       <r>    -2.4634     0.3469     0.1545 </r>
       <r>    -2.3846     0.4712     0.1917 </r>
       <r>    -2.3058     0.5832     0.2376 </r>
       <r>    -2.2270     0.3272     0.2634 </r>
       <r>    -2.1482     0.4113     0.2958 </r>
       <r>    -2.0693     0.5183     0.3367 </r>
       <r>    -1.9905     0.3423     0.3637 </r>
       <r>    -1.9117     0.4945     0.4026 </r>
       <r>    -1.8329     0.4940     0.4416 </r>
       <r>    -1.7541     0.6791     0.4951 </r>
       <r>    -1.6753     0.5555     0.5389 </r>
       <r>    -1.5965     0.8249     0.6039 </r>
       <r>    -1.5177     0.4198     0.6370 </r>
       <r>    -1.4388     0.4933     0.6758 </r>
       <r>    -1.3600     0.4941     0.7148 </r>
       <r>    -1.2812     0.2399     0.7337 </r>
       <r>    -1.2024     0.9728     0.8104 </r>
       <r>    -1.1236     0.8912     0.8806 </r>
       <r>    -1.0448     0.7659     0.9410 </r>
       <r>    -0.9660     0.5646     0.9855 </r>
       <r>    -0.8872     0.7280     1.0428 </r>
       <r>    -0.8084     0.5684     1.0876 </r>
       <r>    -0.7295     0.9907     1.1657 </r>
       <r>    -0.6507     0.4609     1.2020 </r>
       <r>    -0.5719     0.7127     1.2582 </r>
       <r>    -0.4931     0.4942     1.2971 </r>
       <r>    -0.4143     0.7921     1.3596 </r>
       <r>    -0.3355     1.0878     1.4453 </r>
       <r>    -0.2567     0.8254     1.5104 </r>
       <r>    -0.1779     0.5624     1.5547 </r>
       <r>    -0.0990     1.1233     1.6432 </r>
       <r>    -0.0202     1.1722     1.7356 </r>
       <r>     0.0586     0.5430     1.7784 </r>
       <r>     0.1374     0.7020     1.8337 </r>
       <r>     0.2162     0.7579     1.8934 </r>
       <r>     0.2950     0.8592     1.9612 </r>
       <r>     0.3738     0.9612     2.0369 </r>
       <r>     0.4526     1.0078     2.1163 </r>
       <r>     0.5315     0.1692     2.1297 </r>
       <r>     0.6103     1.1815     2.2228 </r>
       <r>     0.6891     0.8886     2.2928 </r>
       <r>     0.7679     1.2801     2.3937 </r>
       <r>     0.8467     1.3659     2.5014 </r>
       <r>     0.9255     1.2393     2.5990 </r>
       <r>     1.0043     0.6808     2.6527 </r>
       <r>     1.0831     0.5974     2.6998 </r>
       <r>     1.1619     0.9098     2.7715 </r>
       <r>     1.2408     1.2244     2.8680 </r>
       <r>     1.3196     0.6412     2.9185 </r>
       <r>     1.3984     1.0401     3.0005 </r>
       <r>     1.4772     0.7331     3.0583 </r>
       <r>     1.5560     1.2122     3.1538 </r>
       <r>     1.6348     0.9416     3.2280 </r>
       <r>     1.7136     1.4545     3.3426 </r>
       <r>     1.7924     1.0740     3.4273 </r>
       <r>     1.8713     1.1692     3.5194 </r>
       <r>     1.9501     1.4065     3.6303 </r>
       <r>     2.0289     0.7894     3.6925 </r>
       <r>     2.1077     0.5912     3.7391 </r>
       <r>     2.1865     0.9733     3.8158 </r>
       <r>     2.2653     1.6650     3.9470 </r>
       <r>     2.3441     1.6778     4.0792 </r>
       <r>     2.4229     1.0904     4.1652 </r>
       <r>     2.5018     0.8169     4.2296 </r>
       <r>     2.5806     1.1934     4.3236 </r>
       <r>     2.6594     0.3540     4.3515 </r>
       <r>     2.7382     1.0059     4.4308 </r>
       <r>     2.8170     1.3180     4.5347 </r>
       <r>     2.8958     1.5690     4.6583 </r>
       <r>     2.9746     1.2929     4.7602 </r>
       <r>     3.0534     0.9131     4.8322 </r>
       <r>     3.1322     1.8713     4.9797 </r>
       <r>     3.2111     1.5464     5.1015 </r>
       <r>     3.2899     0.4704     5.1386 </r>
       <r>     3.3687     1.2701     5.2387 </r>
       <r>     3.4475     1.8982     5.3883 </r>
       <r>     3.5263     1.5155     5.5077 </r>
       <r>     3.6051     1.2369     5.6052 </r>
       <r>     3.6839     1.2704     5.7054 </r>
       <r>     3.7627     0.9809     5.7827 </r>
       <r>     3.8416     0.6439     5.8334 </r>
       <r>     3.9204     0.8538     5.9007 </r>
       <r>     3.9992     1.6021     6.0270 </r>
       <r>     4.0780     1.3368     6.1323 </r>
       <r>     4.1568     1.3864     6.2416 </r>
       <r>     4.2356     2.1768     6.4131 </r>
       <r>     4.3144     1.0846     6.4986 </r>
       <r>     4.3932     1.6618     6.6296 </r>
       <r>     4.4721     1.3224     6.7338 </r>
       <r>     4.5509     0.9381     6.8077 </r>
       <r>     4.6297     2.0268     6.9675 </r>
       <r>     4.7085     1.1540     7.0584 </r>
       <r>     4.7873     1.4706     7.1743 </r>
       <r>     4.8661     1.2772     7.2750 </r>
       <r>     4.9449     1.1310     7.3641 </r>
       <r>     5.0237     1.1610     7.4556 </r>
       <r>     5.1025     1.5450     7.5774 </r>
       <r>     5.1814     1.2456     7.6756 </r>
       <r>     5.2602     1.8534     7.8216 </r>
       <r>     5.3390     1.6401     7.9509 </r>
       <r>     5.4178     2.3011     8.1322 </r>
       <r>     5.4966     1.8694     8.2796 </r>
       <r>     5.5754     0.8472     8.3463 </r>
       <r>     5.6542     0.8871     8.4163 </r>
       <r>     5.7330     1.2018     8.5110 </r>
       <r>     5.8119     1.6288     8.6393 </r>
       <r>     5.8907     1.7555     8.7777 </r>
       <r>     5.9695     1.6406     8.9070 </r>
       <r>     6.0483     1.6451     9.0367 </r>
       <r>     6.1271     0.8797     9.1060 </r>
       <r>     6.2059     1.2886     9.2075 </r>
       <r>     6.2847     1.4740     9.3237 </r>
       <r>     6.3635     1.2021     9.4185 </r>
       <r>     6.4424     1.1541     9.5094 </r>
       <r>     6.5212     1.6990     9.6433 </r>
       <r>     6.6000     1.3183     9.7472 </r>
       <r>     6.6788     1.8155     9.8903 </r>
       <r>     6.7576     1.8325    10.0347 </r>
       <r>     6.8364     1.2080    10.1299 </r>
       <r>     6.9152     1.5478    10.2519 </r>
       <r>     6.9940     1.4048    10.3626 </r>
       <r>     7.0728     1.5435    10.4843 </r>
       <r>     7.1517     1.2765    10.5849 </r>
       <r>     7.2305     1.3771    10.6934 </r>
       <r>     7.3093     1.3074    10.7965 </r>
       <r>     7.3881     1.7066    10.9310 </r>
       <r>     7.4669     1.3227    11.0352 </r>
       <r>     7.5457     1.5567    11.1579 </r>
       <r>     7.6245     1.8268    11.3019 </r>
       <r>     7.7033     2.2896    11.4823 </r>
       <r>     7.7822     1.3711    11.5904 </r>
       <r>     7.8610     1.6627    11.7214 </r>
       <r>     7.9398     1.7501    11.8593 </r>
       <r>     8.0186     1.6572    11.9900 </r>
       <r>     8.0974     1.3913    12.0996 </r>
       <r>     8.1762     2.3270    12.2830 </r>
       <r>     8.2550     1.6690    12.4145 </r>
       <r>     8.3338     1.0912    12.5005 </r>
       <r>     8.4127     0.8865    12.5704 </r>
       <r>     8.4915     1.9902    12.7273 </r>
       <r>     8.5703     1.2704    12.8274 </r>
       <r>     8.6491     1.7290    12.9637 </r>
       <r>     8.7279     1.7897    13.1047 </r>
       <r>     8.8067     2.5159    13.3030 </r>
       <r>     8.8855     0.8692    13.3715 </r>
       <r>     8.9643     1.5935    13.4971 </r>
       <r>     9.0431     1.2180    13.5931 </r>
       <r>     9.1220     1.7632    13.7320 </r>
       <r>     9.2008     2.2577    13.9100 </r>
       <r>     9.2796     2.0724    14.0733 </r>
       <r>     9.3584     1.4709    14.1892 </r>
       <r>     9.4372     0.6321    14.2390 </r>
       <r>     9.5160     1.7439    14.3765 </r>
       <r>     9.5948     2.5249    14.5755 </r>
       <r>     9.6736     1.9758    14.7312 </r>
       <r>     9.7525     1.7426    14.8685 </r>
       <r>     9.8313     2.0328    15.0287 </r>
       <r>     9.9101     2.3360    15.2128 </r>
       <r>     9.9889     1.8088    15.3554 </r>
       <r>    10.0677     1.2633    15.4549 </r>
       <r>    10.1465     1.5711    15.5788 </r>
       <r>    10.2253     1.4723    15.6948 </r>
       <r>    10.3041     2.2209    15.8698 </r>
       <r>    10.3830     2.7628    16.0876 </r>
       <r>    10.4618     1.6085    16.2144 </r>
       <r>    10.5406     0.4465    16.2495 </r>
       <r>    10.6194     0.8399    16.3157 </r>
       <r>    10.6982     1.8355    16.4604 </r>
       <r>    10.7770     1.9262    16.6122 </r>
       <r>    10.8558     2.2526    16.7897 </r>
       <r>    10.9346     2.0162    16.9486 </r>
       <r>    11.0134     1.5636    17.0719 </r>
       <r>    11.0923     2.1694    17.2428 </r>
       <r>    11.1711     2.6249    17.4497 </r>
       <r>    11.2499     2.1002    17.6152 </r>
       <r>    11.3287     2.4537    17.8086 </r>
       <r>    11.4075     1.4030    17.9192 </r>
       <r>    11.4863     1.8772    18.0671 </r>
       <r>    11.5651     2.4205    18.2579 </r>
       <r>    11.6439     1.1105    18.3454 </r>
       <r>    11.7228     1.3021    18.4480 </r>
       <r>    11.8016     1.7238    18.5839 </r>
       <r>    11.8804     2.3291    18.7675 </r>
       <r>    11.9592     2.0335    18.9277 </r>
       <r>    12.0380     2.9741    19.1621 </r>
       <r>    12.1168     2.1358    19.3305 </r>
       <r>    12.1956     1.9069    19.4807 </r>
       <r>    12.2744     2.1790    19.6525 </r>
       <r>    12.3533     1.8910    19.8015 </r>
       <r>    12.4321     1.6824    19.9341 </r>
       <r>    12.5109     2.0144    20.0929 </r>
       <r>    12.5897     1.5740    20.2169 </r>
       <r>    12.6685     2.0362    20.3774 </r>
       <r>    12.7473     2.1749    20.5488 </r>
       <r>    12.8261     0.8865    20.6186 </r>
       <r>    12.9049     1.6285    20.7470 </r>
       <r>    12.9837     2.1201    20.9141 </r>
       <r>    13.0626     2.4466    21.1069 </r>
       <r>    13.1414     2.6747    21.3177 </r>
       <r>    13.2202     2.2272    21.4932 </r>
       <r>    13.2990     1.6167    21.6206 </r>
       <r>    13.3778     2.1910    21.7933 </r>
       <r>    13.4566     1.4524    21.9078 </r>
       <r>    13.5354     0.9787    21.9849 </r>
       <r>    13.6142     1.0758    22.0697 </r>
       <r>    13.6931     1.7931    22.2110 </r>
       <r>    13.7719     1.5878    22.3362 </r>
       <r>    13.8507     0.9066    22.4076 </r>
       <r>    13.9295     1.4284    22.5202 </r>
       <r>    14.0083     1.3980    22.6304 </r>
       <r>    14.0871     0.9581    22.7059 </r>
       <r>    14.1659     0.9399    22.7800 </r>
       <r>    14.2447     0.5021    22.8195 </r>
       <r>    14.3236     1.0244    22.9003 </r>
       <r>    14.4024     0.7968    22.9631 </r>
       <r>    14.4812     0.2363    22.9817 </r>
       <r>    14.5600     0.7615    23.0417 </r>
       <r>    14.6388     0.6163    23.0903 </r>
       <r>    14.7176     0.7687    23.1508 </r>
       <r>    14.7964     0.3997    23.1824 </r>
       <r>    14.8752     0.6739    23.2355 </r>
       <r>    14.9540     0.4658    23.2722 </r>
       <r>    15.0329     1.0355    23.3538 </r>
       <r>    15.1117     0.5188    23.3947 </r>
       <r>    15.1905     0.1985    23.4103 </r>
       <r>    15.2693     0.6073    23.4582 </r>
       <r>    15.3481     0.2576    23.4785 </r>
       <r>    15.4269     0.1181    23.4878 </r>
       <r>    15.5057     0.5230    23.5290 </r>
       <r>    15.5845     0.4069    23.5611 </r>
       <r>    15.6634     0.4539    23.5968 </r>
       <r>    15.7422     0.5519    23.6403 </r>
       <r>    15.8210     0.1864    23.6550 </r>
       <r>    15.8998     0.2317    23.6733 </r>
       <r>    15.9786     0.3800    23.7032 </r>
       <r>    16.0574     0.1870    23.7180 </r>
       <r>    16.1362     0.0280    23.7202 </r>
       <r>    16.2150     0.3471    23.7475 </r>
       <r>    16.2938     0.2229    23.7651 </r>
       <r>    16.3727     0.0669    23.7704 </r>
       <r>    16.4515     0.3259    23.7961 </r>
       <r>    16.5303     0.2236    23.8137 </r>
       <r>    16.6091     0.3671    23.8426 </r>
       <r>    16.6879     0.0094    23.8434 </r>
       <r>    16.7667     0.1198    23.8528 </r>
       <r>    16.8455     0.2208    23.8702 </r>
       <r>    16.9243     0.2033    23.8862 </r>
       <r>    17.0032     0.0145    23.8874 </r>
       <r>    17.0820     0.2303    23.9055 </r>
       <r>    17.1608     0.2595    23.9260 </r>
       <r>    17.2396     0.0969    23.9336 </r>
       <r>    17.3184    -0.0005    23.9336 </r>
       <r>    17.3972     0.0892    23.9406 </r>
       <r>    17.4760     0.0900    23.9477 </r>
       <r>    17.5548     0.1346    23.9583 </r>
       <r>    17.6337    -0.0057    23.9579 </r>
       <r>    17.7125     0.0231    23.9597 </r>
       <r>    17.7913     0.0538    23.9639 </r>
       <r>    17.8701     0.0542    23.9682 </r>
       <r>    17.9489     0.2155    23.9852 </r>
       <r>    18.0277     0.0374    23.9881 </r>
       <r>    18.1065    -0.0018    23.9880 </r>
       <r>    18.1853    -0.0004    23.9880 </r>
       <r>    18.2641     0.0066    23.9885 </r>
       <r>    18.3430     0.0789    23.9947 </r>
       <r>    18.4218     0.0694    24.0002 </r>
       <r>    18.5006    -0.0019    24.0000 </r>
       <r>    18.5794    -0.0001    24.0000 </r>
       <r>    18.6582    -0.0000    24.0000 </r>
       <r>    18.7370    -0.0000    24.0000 </r>
       <r>    18.8158     0.0000    24.0000 </r>
       <r>    18.8946     0.0000    24.0000 </r>
       <r>    18.9735     0.0000    24.0000 </r>
       <r>    19.0523     0.0000    24.0000 </r>
       <r>    19.1311     0.0000    24.0000 </r>
       <r>    19.2099     0.0000    24.0000 </r>
       <r>    19.2887     0.0000    24.0000 </r>
       <r>    19.3675     0.0000    24.0000 </r>
       <r>    19.4463     0.0000    24.0000 </r>
      </set>
     </set>
    </array>
   </total>
  </dos>
 </calculation>
 <structure name="finalpos" >
  <crystal>
   <varray name="basis" >
    <v>       4.04336400       0.00000000       0.00000000 </v>
    <v>       0.00000000       4.04336400       0.00000000 </v>
    <v>       0.48520400       0.00000000       4.01414600 </v>
   </varray>
   <i name="volume">     65.62643976 </i>
   <varray name="rec_basis" >
    <v>       0.24731882       0.00000000      -0.02989430 </v>
    <v>       0.00000000       0.24731882       0.00000000 </v>
    <v>       0.00000000       0.00000000       0.24911899 </v>
   </varray>
  </crystal>
  <varray name="positions" >
   <v>       0.00000000       0.00000000       0.00000000 </v>
   <v>       0.00000000       0.50000000       0.50000000 </v>
   <v>       0.50000000       0.00000000       0.50000000 </v>
   <v>       0.50000000       0.50000000       0.00000000 </v>
  </varray>
 </structure>
</modeling>
