<?xml version="1.0" encoding="ISO-8859-1"?>
<modeling>
 <generator>
  <i name="program" type="string">vasp </i>
  <i name="version" type="string">5.4.4.18Apr17-6-g9f103f2a35  </i>
  <i name="subversion" type="string">(build Jun 11 2017 21:30:58) complex            parallel </i>
  <i name="platform" type="string">LinuxIFC </i>
  <i name="date" type="string">2022 07 07 </i>
  <i name="time" type="string">18:38:14 </i>
 </generator>
 <incar>
  <i type="string" name="PREC">accurate</i>
  <i type="string" name="ALGO"> Normal</i>
  <i type="logical" name="ADDGRID"> T  </i>
  <i type="int" name="NELM">   100</i>
  <i type="int" name="NELMIN">     4</i>
  <i type="int" name="IBRION">    -1</i>
  <i name="EDIFF">      0.00005000</i>
  <i name="ENCUT">    520.00000000</i>
  <i type="logical" name="LREAL"> F  </i>
  <i type="int" name="ISMEAR">     1</i>
  <i name="SIGMA">      0.05000000</i>
  <i type="logical" name="LWAVE"> F  </i>
  <i type="logical" name="LCHARG"> F  </i>
  <i type="logical" name="LASPH"> T  </i>
  <v type="int" name="KPOINT_BSE">    -1     0     0     0</v>
  <i type="int" name="NELM">   100</i>
  <i type="logical" name="LASPH"> T  </i>
 </incar>
 <structure name="primitive_cell" >
  <crystal>
   <varray name="basis" >
    <v>       2.01154850       0.00000000      -2.02168200 </v>
    <v>       2.01154850       0.00000000       2.02168200 </v>
    <v>      -2.01154850      -2.02168200       0.00000000 </v>
   </varray>
   <i name="volume">     16.44319445 </i>
   <varray name="rec_basis" >
    <v>       0.24856473      -0.24731882      -0.24731882 </v>
    <v>       0.24856473      -0.24731882       0.24731882 </v>
    <v>       0.00000000      -0.49463763       0.00000000 </v>
   </varray>
  </crystal>
  <varray name="positions" >
   <v>       0.00000000       0.00000000       0.00000000 </v>
  </varray>
 </structure>
 <varray name="primitive_index" >
  <v type="int" >        1 </v>
 </varray>
 <kpoints>
  <generation param="Gamma">
   <v type="int" name="divisions">      11       11       11 </v>
   <v name="usershift">      0.00000000       0.00000000       0.00000000 </v>
   <v name="genvec1">      0.09090909       0.00000000       0.00000000 </v>
   <v name="genvec2">      0.00000000       0.09090909       0.00000000 </v>
   <v name="genvec3">      0.00000000       0.00000000       0.09090909 </v>
   <v name="shift">      0.00000000       0.00000000       0.00000000 </v>
  </generation>
  <varray name="kpointlist" >
   <v>       0.00000000       0.00000000       0.00000000 </v>
   <v>       0.09090909       0.00000000       0.00000000 </v>
   <v>       0.18181818       0.00000000       0.00000000 </v>
   <v>       0.27272727       0.00000000       0.00000000 </v>
   <v>       0.36363636       0.00000000       0.00000000 </v>
   <v>       0.45454545       0.00000000       0.00000000 </v>
   <v>       0.00000000       0.09090909       0.00000000 </v>
   <v>       0.09090909       0.09090909       0.00000000 </v>
   <v>       0.18181818       0.09090909       0.00000000 </v>
   <v>       0.27272727       0.09090909       0.00000000 </v>
   <v>       0.36363636       0.09090909       0.00000000 </v>
   <v>       0.45454545       0.09090909       0.00000000 </v>
   <v>       0.00000000       0.18181818       0.00000000 </v>
   <v>       0.09090909       0.18181818       0.00000000 </v>
   <v>       0.18181818       0.18181818       0.00000000 </v>
   <v>       0.27272727       0.18181818       0.00000000 </v>
   <v>       0.36363636       0.18181818       0.00000000 </v>
   <v>       0.45454545       0.18181818       0.00000000 </v>
   <v>       0.00000000       0.27272727       0.00000000 </v>
   <v>       0.09090909       0.27272727       0.00000000 </v>
   <v>       0.18181818       0.27272727       0.00000000 </v>
   <v>       0.27272727       0.27272727       0.00000000 </v>
   <v>       0.36363636       0.27272727       0.00000000 </v>
   <v>       0.45454545       0.27272727       0.00000000 </v>
   <v>       0.00000000       0.36363636       0.00000000 </v>
   <v>       0.09090909       0.36363636       0.00000000 </v>
   <v>       0.18181818       0.36363636       0.00000000 </v>
   <v>       0.27272727       0.36363636       0.00000000 </v>
   <v>       0.36363636       0.36363636       0.00000000 </v>
   <v>       0.45454545       0.36363636       0.00000000 </v>
   <v>       0.00000000       0.45454545       0.00000000 </v>
   <v>       0.09090909       0.45454545       0.00000000 </v>
   <v>       0.18181818       0.45454545       0.00000000 </v>
   <v>       0.27272727       0.45454545       0.00000000 </v>
   <v>       0.36363636       0.45454545       0.00000000 </v>
   <v>       0.45454545       0.45454545       0.00000000 </v>
   <v>       0.00000000       0.09090909       0.09090909 </v>
   <v>       0.09090909       0.09090909       0.09090909 </v>
   <v>       0.18181818       0.09090909       0.09090909 </v>
   <v>       0.27272727       0.09090909       0.09090909 </v>
   <v>       0.36363636       0.09090909       0.09090909 </v>
   <v>       0.45454545       0.09090909       0.09090909 </v>
   <v>       0.00000000       0.18181818       0.09090909 </v>
   <v>       0.09090909       0.18181818       0.09090909 </v>
   <v>       0.18181818       0.18181818       0.09090909 </v>
   <v>       0.27272727       0.18181818       0.09090909 </v>
   <v>       0.36363636       0.18181818       0.09090909 </v>
   <v>       0.45454545       0.18181818       0.09090909 </v>
   <v>       0.00000000       0.27272727       0.09090909 </v>
   <v>       0.09090909       0.27272727       0.09090909 </v>
   <v>       0.18181818       0.27272727       0.09090909 </v>
   <v>       0.27272727       0.27272727       0.09090909 </v>
   <v>       0.36363636       0.27272727       0.09090909 </v>
   <v>       0.45454545       0.27272727       0.09090909 </v>
   <v>       0.00000000       0.36363636       0.09090909 </v>
   <v>       0.09090909       0.36363636       0.09090909 </v>
   <v>       0.18181818       0.36363636       0.09090909 </v>
   <v>       0.27272727       0.36363636       0.09090909 </v>
   <v>       0.36363636       0.36363636       0.09090909 </v>
   <v>       0.45454545       0.36363636       0.09090909 </v>
   <v>       0.00000000       0.45454545       0.09090909 </v>
   <v>       0.09090909       0.45454545       0.09090909 </v>
   <v>       0.18181818       0.45454545       0.09090909 </v>
   <v>       0.27272727       0.45454545       0.09090909 </v>
   <v>       0.36363636       0.45454545       0.09090909 </v>
   <v>       0.45454545       0.45454545       0.09090909 </v>
   <v>       0.00000000       0.18181818       0.18181818 </v>
   <v>       0.09090909       0.18181818       0.18181818 </v>
   <v>       0.18181818       0.18181818       0.18181818 </v>
   <v>       0.27272727       0.18181818       0.18181818 </v>
   <v>       0.36363636       0.18181818       0.18181818 </v>
   <v>       0.45454545       0.18181818       0.18181818 </v>
   <v>       0.00000000       0.27272727       0.18181818 </v>
   <v>       0.09090909       0.27272727       0.18181818 </v>
   <v>       0.18181818       0.27272727       0.18181818 </v>
   <v>       0.27272727       0.27272727       0.18181818 </v>
   <v>       0.36363636       0.27272727       0.18181818 </v>
   <v>       0.45454545       0.27272727       0.18181818 </v>
   <v>       0.00000000       0.36363636       0.18181818 </v>
   <v>       0.09090909       0.36363636       0.18181818 </v>
   <v>       0.18181818       0.36363636       0.18181818 </v>
   <v>       0.27272727       0.36363636       0.18181818 </v>
   <v>       0.36363636       0.36363636       0.18181818 </v>
   <v>       0.45454545       0.36363636       0.18181818 </v>
   <v>       0.00000000       0.45454545       0.18181818 </v>
   <v>       0.09090909       0.45454545       0.18181818 </v>
   <v>       0.18181818       0.45454545       0.18181818 </v>
   <v>       0.27272727       0.45454545       0.18181818 </v>
   <v>       0.36363636       0.45454545       0.18181818 </v>
   <v>       0.45454545       0.45454545       0.18181818 </v>
   <v>       0.00000000       0.27272727       0.27272727 </v>
   <v>       0.09090909       0.27272727       0.27272727 </v>
   <v>       0.18181818       0.27272727       0.27272727 </v>
   <v>       0.27272727       0.27272727       0.27272727 </v>
   <v>       0.36363636       0.27272727       0.27272727 </v>
   <v>       0.45454545       0.27272727       0.27272727 </v>
   <v>       0.00000000       0.36363636       0.27272727 </v>
   <v>       0.09090909       0.36363636       0.27272727 </v>
   <v>       0.18181818       0.36363636       0.27272727 </v>
   <v>       0.27272727       0.36363636       0.27272727 </v>
   <v>       0.36363636       0.36363636       0.27272727 </v>
   <v>       0.45454545       0.36363636       0.27272727 </v>
   <v>       0.00000000       0.45454545       0.27272727 </v>
   <v>       0.09090909       0.45454545       0.27272727 </v>
   <v>       0.18181818       0.45454545       0.27272727 </v>
   <v>       0.27272727       0.45454545       0.27272727 </v>
   <v>       0.36363636       0.45454545       0.27272727 </v>
   <v>       0.45454545       0.45454545       0.27272727 </v>
   <v>       0.00000000       0.36363636       0.36363636 </v>
   <v>       0.09090909       0.36363636       0.36363636 </v>
   <v>       0.18181818       0.36363636       0.36363636 </v>
   <v>       0.27272727       0.36363636       0.36363636 </v>
   <v>       0.36363636       0.36363636       0.36363636 </v>
   <v>       0.45454545       0.36363636       0.36363636 </v>
   <v>       0.00000000       0.45454545       0.36363636 </v>
   <v>       0.09090909       0.45454545       0.36363636 </v>
   <v>       0.18181818       0.45454545       0.36363636 </v>
   <v>       0.27272727       0.45454545       0.36363636 </v>
   <v>       0.36363636       0.45454545       0.36363636 </v>
   <v>       0.45454545       0.45454545       0.36363636 </v>
   <v>       0.00000000       0.45454545       0.45454545 </v>
   <v>       0.09090909       0.45454545       0.45454545 </v>
   <v>       0.18181818       0.45454545       0.45454545 </v>
   <v>       0.27272727       0.45454545       0.45454545 </v>
   <v>       0.36363636       0.45454545       0.45454545 </v>
   <v>       0.45454545       0.45454545       0.45454545 </v>
  </varray>
  <varray name="weights" >
   <v>       0.00075131 </v>
   <v>       0.00150263 </v>
   <v>       0.00150263 </v>
   <v>       0.00150263 </v>
   <v>       0.00150263 </v>
   <v>       0.00150263 </v>
   <v>       0.00300526 </v>
   <v>       0.00601052 </v>
   <v>       0.00601052 </v>
   <v>       0.00601052 </v>
   <v>       0.00601052 </v>
   <v>       0.00601052 </v>
   <v>       0.00300526 </v>
   <v>       0.00601052 </v>
   <v>       0.00601052 </v>
   <v>       0.00601052 </v>
   <v>       0.00601052 </v>
   <v>       0.00601052 </v>
   <v>       0.00300526 </v>
   <v>       0.00601052 </v>
   <v>       0.00601052 </v>
   <v>       0.00601052 </v>
   <v>       0.00601052 </v>
   <v>       0.00601052 </v>
   <v>       0.00300526 </v>
   <v>       0.00601052 </v>
   <v>       0.00601052 </v>
   <v>       0.00601052 </v>
   <v>       0.00601052 </v>
   <v>       0.00601052 </v>
   <v>       0.00300526 </v>
   <v>       0.00601052 </v>
   <v>       0.00601052 </v>
   <v>       0.00601052 </v>
   <v>       0.00601052 </v>
   <v>       0.00601052 </v>
   <v>       0.00300526 </v>
   <v>       0.00601052 </v>
   <v>       0.00601052 </v>
   <v>       0.00601052 </v>
   <v>       0.00601052 </v>
   <v>       0.00601052 </v>
   <v>       0.00601052 </v>
   <v>       0.01202104 </v>
   <v>       0.01202104 </v>
   <v>       0.01202104 </v>
   <v>       0.01202104 </v>
   <v>       0.01202104 </v>
   <v>       0.00601052 </v>
   <v>       0.01202104 </v>
   <v>       0.01202104 </v>
   <v>       0.01202104 </v>
   <v>       0.01202104 </v>
   <v>       0.01202104 </v>
   <v>       0.00601052 </v>
   <v>       0.01202104 </v>
   <v>       0.01202104 </v>
   <v>       0.01202104 </v>
   <v>       0.01202104 </v>
   <v>       0.01202104 </v>
   <v>       0.00601052 </v>
   <v>       0.01202104 </v>
   <v>       0.01202104 </v>
   <v>       0.01202104 </v>
   <v>       0.01202104 </v>
   <v>       0.01202104 </v>
   <v>       0.00300526 </v>
   <v>       0.00601052 </v>
   <v>       0.00601052 </v>
   <v>       0.00601052 </v>
   <v>       0.00601052 </v>
   <v>       0.00601052 </v>
   <v>       0.00601052 </v>
   <v>       0.01202104 </v>
   <v>       0.01202104 </v>
   <v>       0.01202104 </v>
   <v>       0.01202104 </v>
   <v>       0.01202104 </v>
   <v>       0.00601052 </v>
   <v>       0.01202104 </v>
   <v>       0.01202104 </v>
   <v>       0.01202104 </v>
   <v>       0.01202104 </v>
   <v>       0.01202104 </v>
   <v>       0.00601052 </v>
   <v>       0.01202104 </v>
   <v>       0.01202104 </v>
   <v>       0.01202104 </v>
   <v>       0.01202104 </v>
   <v>       0.01202104 </v>
   <v>       0.00300526 </v>
   <v>       0.00601052 </v>
   <v>       0.00601052 </v>
   <v>       0.00601052 </v>
   <v>       0.00601052 </v>
   <v>       0.00601052 </v>
   <v>       0.00601052 </v>
   <v>       0.01202104 </v>
   <v>       0.01202104 </v>
   <v>       0.01202104 </v>
   <v>       0.01202104 </v>
   <v>       0.01202104 </v>
   <v>       0.00601052 </v>
   <v>       0.01202104 </v>
   <v>       0.01202104 </v>
   <v>       0.01202104 </v>
   <v>       0.01202104 </v>
   <v>       0.01202104 </v>
   <v>       0.00300526 </v>
   <v>       0.00601052 </v>
   <v>       0.00601052 </v>
   <v>       0.00601052 </v>
   <v>       0.00601052 </v>
   <v>       0.00601052 </v>
   <v>       0.00601052 </v>
   <v>       0.01202104 </v>
   <v>       0.01202104 </v>
   <v>       0.01202104 </v>
   <v>       0.01202104 </v>
   <v>       0.01202104 </v>
   <v>       0.00300526 </v>
   <v>       0.00601052 </v>
   <v>       0.00601052 </v>
   <v>       0.00601052 </v>
   <v>       0.00601052 </v>
   <v>       0.00601052 </v>
  </varray>
 </kpoints>
 <parameters>
  <separator name="general" >
   <i type="string" name="SYSTEM">unknown system</i>
   <i type="logical" name="LCOMPAT"> F  </i>
  </separator>
  <separator name="electronic" >
   <i type="string" name="PREC">accura</i>
   <i name="ENMAX">    520.00000000</i>
   <i name="ENAUG">    291.05200000</i>
   <i name="EDIFF">      0.00005000</i>
   <i type="int" name="IALGO">    38</i>
   <i type="int" name="IWAVPR">    10</i>
   <i type="int" name="NBANDS">    12</i>
   <i name="NELECT">     12.00000000</i>
   <i type="int" name="TURBO">     0</i>
   <i type="int" name="IRESTART">     0</i>
   <i type="int" name="NREBOOT">     0</i>
   <i type="int" name="NMIN">     0</i>
   <i name="EREF">      0.00000000</i>
   <separator name="electronic smearing" >
    <i type="int" name="ISMEAR">     1</i>
    <i name="SIGMA">      0.05000000</i>
    <i name="KSPACING">      0.50000000</i>
    <i type="logical" name="KGAMMA"> T  </i>
   </separator>
   <separator name="electronic projectors" >
    <i type="logical" name="LREAL"> F  </i>
    <v name="ROPT">      0.00000000</v>
    <i type="int" name="LMAXPAW">  -100</i>
    <i type="int" name="LMAXMIX">     2</i>
    <i type="logical" name="NLSPLINE"> F  </i>
   </separator>
   <separator name="electronic startup" >
    <i type="int" name="ISTART">     0</i>
    <i type="int" name="ICHARG">     2</i>
    <i type="int" name="INIWAV">     1</i>
   </separator>
   <separator name="electronic spin" >
    <i type="int" name="ISPIN">     1</i>
    <i type="logical" name="LNONCOLLINEAR"> F  </i>
    <v name="MAGMOM">      1.00000000      1.00000000      1.00000000      1.00000000</v>
    <i name="NUPDOWN">     -1.00000000</i>
    <i type="logical" name="LSORBIT"> F  </i>
    <v name="SAXIS">      0.00000000      0.00000000      1.00000000</v>
    <i type="logical" name="LSPIRAL"> F  </i>
    <v name="QSPIRAL">      0.00000000      0.00000000      0.00000000</v>
    <i type="logical" name="LZEROZ"> F  </i>
   </separator>
   <separator name="electronic exchange-correlation" >
    <i type="logical" name="LASPH"> T  </i>
    <i type="logical" name="LMETAGGA"> F  </i>
   </separator>
   <separator name="electronic convergence" >
    <i type="int" name="NELM">   100</i>
    <i type="int" name="NELMDL">    -5</i>
    <i type="int" name="NELMIN">     4</i>
    <i name="ENINI">    520.00000000</i>
    <separator name="electronic convergence detail" >
     <i type="logical" name="LDIAG"> T  </i>
     <i type="logical" name="LSUBROT"> F  </i>
     <i name="WEIMIN">      0.00000000</i>
     <i name="EBREAK">      0.00000104</i>
     <i name="DEPER">      0.30000000</i>
     <i type="int" name="NRMM">     4</i>
     <i name="TIME">      0.40000000</i>
    </separator>
   </separator>
   <separator name="electronic mixer" >
    <i name="AMIX">      0.40000000</i>
    <i name="BMIX">      1.00000000</i>
    <i name="AMIN">      0.10000000</i>
    <i name="AMIX_MAG">      1.60000000</i>
    <i name="BMIX_MAG">      1.00000000</i>
    <separator name="electronic mixer details" >
     <i type="int" name="IMIX">     4</i>
     <i type="logical" name="MIXFIRST"> F  </i>
     <i type="int" name="MAXMIX">   -45</i>
     <i name="WC">    100.00000000</i>
     <i type="int" name="INIMIX">     1</i>
     <i type="int" name="MIXPRE">     1</i>
     <i type="int" name="MREMOVE">     5</i>
    </separator>
   </separator>
   <separator name="electronic dipolcorrection" >
    <i type="logical" name="LDIPOL"> F  </i>
    <i type="logical" name="LMONO"> F  </i>
    <i type="int" name="IDIPOL">     0</i>
    <i name="EPSILON">      1.00000000</i>
    <v name="DIPOL">   -100.00000000   -100.00000000   -100.00000000</v>
    <i name="EFIELD">      0.00000000</i>
   </separator>
  </separator>
  <separator name="grids" >
   <i type="int" name="NGX">    30</i>
   <i type="int" name="NGY">    30</i>
   <i type="int" name="NGZ">    30</i>
   <i type="int" name="NGXF">    60</i>
   <i type="int" name="NGYF">    60</i>
   <i type="int" name="NGZF">    60</i>
   <i type="logical" name="ADDGRID"> T  </i>
  </separator>
  <separator name="ionic" >
   <i type="int" name="NSW">     0</i>
   <i type="int" name="IBRION">    -1</i>
   <i type="int" name="MDALGO">     0</i>
   <i type="int" name="ISIF">     2</i>
   <i name="PSTRESS">      0.00000000</i>
   <i name="EDIFFG">      0.00050000</i>
   <i type="int" name="NFREE">     0</i>
   <i name="POTIM">      0.50000000</i>
   <i name="SMASS">     -3.00000000</i>
   <i name="SCALEE">      1.00000000</i>
  </separator>
  <separator name="ionic md" >
   <i name="TEBEG">      0.00010000</i>
   <i name="TEEND">      0.00010000</i>
   <i type="int" name="NBLOCK">     1</i>
   <i type="int" name="KBLOCK">     1</i>
   <i type="int" name="NPACO">   256</i>
   <i name="APACO">     16.00000000</i>
  </separator>
  <separator name="symmetry" >
   <i type="int" name="ISYM">     2</i>
   <i name="SYMPREC">      0.00001000</i>
  </separator>
  <separator name="dos" >
   <i type="int" name="LORBIT">     0</i>
   <v name="RWIGS">     -1.00000000</v>
   <i type="int" name="NEDOS">   301</i>
   <i name="EMIN">     10.00000000</i>
   <i name="EMAX">    -10.00000000</i>
   <i name="EFERMI">      0.00000000</i>
  </separator>
  <separator name="writing" >
   <i type="int" name="NWRITE">     2</i>
   <i type="logical" name="LWAVE"> F  </i>
   <i type="logical" name="LDOWNSAMPLE"> F  </i>
   <i type="logical" name="LCHARG"> F  </i>
   <i type="logical" name="LPARD"> F  </i>
   <i type="logical" name="LVTOT"> F  </i>
   <i type="logical" name="LVHAR"> F  </i>
   <i type="logical" name="LELF"> F  </i>
   <i type="logical" name="LOPTICS"> F  </i>
   <v name="STM">      0.00000000      0.00000000      0.00000000      0.00000000      0.00000000      0.00000000      0.00000000</v>
  </separator>
  <separator name="performance" >
   <i type="int" name="NPAR">     4</i>
   <i type="int" name="NSIM">     4</i>
   <i type="int" name="NBLK">    -1</i>
   <i type="logical" name="LPLANE"> T  </i>
   <i type="logical" name="LSCALAPACK"> T  </i>
   <i type="logical" name="LSCAAWARE"> F  </i>
   <i type="logical" name="LSCALU"> F  </i>
   <i type="logical" name="LASYNC"> F  </i>
   <i type="logical" name="LORBITALREAL"> F  </i>
  </separator>
  <separator name="miscellaneous" >
   <i type="int" name="IDIOT">     3</i>
   <i type="int" name="ISPECIAL">     0</i>
   <i type="logical" name="LMUSIC"> F  </i>
   <v name="POMASS">     26.98100000</v>
   <v name="DARWINR">      0.00000000</v>
   <v name="DARWINV">      1.00000000</v>
   <i type="logical" name="LCORR"> T  </i>
  </separator>
  <i type="logical" name="GGA_COMPAT"> T  </i>
  <i type="logical" name="LBERRY"> F  </i>
  <i type="int" name="ICORELEVEL">     0</i>
  <i type="logical" name="LDAU"> F  </i>
  <i type="int" name="I_CONSTRAINED_M">     0</i>
  <separator name="electronic exchange-correlation" >
   <i type="string" name="GGA">--</i>
   <i type="int" name="VOSKOWN">     0</i>
   <i type="logical" name="LHFCALC"> F  </i>
   <i type="string" name="PRECFOCK"></i>
   <i type="logical" name="LSYMGRAD"> F  </i>
   <i type="logical" name="LHFONE"> F  </i>
   <i type="logical" name="LRHFCALC"> F  </i>
   <i type="logical" name="LTHOMAS"> F  </i>
   <i type="logical" name="LMODELHF"> F  </i>
   <i name="ENCUT4O">     -1.00000000</i>
   <i type="int" name="EXXOEP">     0</i>
   <i type="int" name="FOURORBIT">     0</i>
   <i name="AEXX">      0.00000000</i>
   <i name="HFALPHA">      0.00000000</i>
   <i name="MCALPHA">      0.00000000</i>
   <i name="ALDAX">      1.00000000</i>
   <i name="AGGAX">      1.00000000</i>
   <i name="ALDAC">      1.00000000</i>
   <i name="AGGAC">      1.00000000</i>
   <i type="int" name="NKREDX">     1</i>
   <i type="int" name="NKREDY">     1</i>
   <i type="int" name="NKREDZ">     1</i>
   <i type="logical" name="SHIFTRED"> F  </i>
   <i type="logical" name="ODDONLY"> F  </i>
   <i type="logical" name="EVENONLY"> F  </i>
   <i type="int" name="LMAXFOCK">     0</i>
   <i type="int" name="NMAXFOCKAE">     0</i>
   <i type="logical" name="LFOCKAEDFT"> F  </i>
   <i name="HFSCREEN">      0.00000000</i>
   <i name="HFSCREENC">      0.00000000</i>
   <i type="int" name="NBANDSGWLOW">     0</i>
  </separator>
  <separator name="vdW DFT" >
   <i type="logical" name="LUSE_VDW"> F  </i>
   <i name="Zab_VDW">     -0.84910000</i>
   <i name="PARAM1">      0.12340000</i>
   <i name="PARAM2">      1.00000000</i>
   <i name="PARAM3">      0.00000000</i>
  </separator>
  <separator name="model GW" >
   <i type="int" name="MODEL_GW">     0</i>
   <i name="MODEL_EPS0">      9.86591667</i>
   <i name="MODEL_ALPHA">      1.00000000</i>
  </separator>
  <separator name="linear response parameters" >
   <i type="logical" name="LEPSILON"> F  </i>
   <i type="logical" name="LRPA"> F  </i>
   <i type="logical" name="LNABLA"> F  </i>
   <i type="logical" name="LVEL"> F  </i>
   <i type="int" name="KINTER">     0</i>
   <i name="CSHIFT">      0.10000000</i>
   <i name="OMEGAMAX">     -1.00000000</i>
   <i name="DEG_THRESHOLD">      0.00200000</i>
   <i name="RTIME">     -0.10000000</i>
   <i name="WPLASMAI">      0.00000000</i>
   <v name="DFIELD">      0.00000000      0.00000000      0.00000000</v>
   <v name="WPLASMA">      0.00000000      0.00000000      0.00000000      0.00000000      0.00000000      0.00000000      0.00000000      0.00000000      0.00000000</v>
  </separator>
  <separator name="orbital magnetization" >
   <i type="logical" name="NUCIND"> F  </i>
   <v name="MAGPOS">      0.00000000      0.00000000      0.00000000</v>
   <i type="logical" name="LNICSALL"> T  </i>
   <i type="logical" name="ORBITALMAG"> F  </i>
   <i type="logical" name="LMAGBLOCH"> F  </i>
   <i type="logical" name="LCHIMAG"> F  </i>
   <i type="logical" name="LGAUGE"> T  </i>
   <i type="int" name="MAGATOM">     0</i>
   <v name="MAGDIPOL">      0.00000000      0.00000000      0.00000000</v>
   <v name="AVECCONST">      0.00000000      0.00000000      0.00000000</v>
  </separator>
  <separator name="response functions" >
   <i type="logical" name="LADDER"> F  </i>
   <i type="logical" name="LRPAFORCE"> F  </i>
   <i type="logical" name="LFXC"> F  </i>
   <i type="logical" name="LHARTREE"> T  </i>
   <i type="int" name="IBSE">     0</i>
   <v type="int" name="KPOINT">    -1     0     0     0</v>
   <i type="logical" name="LTCTE"> F  </i>
   <i type="logical" name="LTETE"> F  </i>
   <i type="logical" name="LTRIPLET"> F  </i>
   <i type="logical" name="LFXCEPS"> F  </i>
   <i type="logical" name="LFXHEG"> F  </i>
   <i type="int" name="NATURALO">     2</i>
   <i type="logical" name="L2ORDER"> F  </i>
   <i type="logical" name="LMP2LT"> F  </i>
   <i type="logical" name="LUSEW"> F  </i>
   <i name="ENCUTGW">     -2.00000000</i>
   <i name="ENCUTGWSOFT">     -2.00000000</i>
   <i name="ENCUTLF">     -1.00000000</i>
   <i type="int" name="LMAXMP2">    -1</i>
   <i name="SCISSOR">      0.00000000</i>
   <i type="int" name="NOMEGA">     0</i>
   <i type="int" name="NOMEGAR">     0</i>
   <i type="int" name="NBANDSGW">    -1</i>
   <i type="int" name="NBANDSO">    -1</i>
   <i type="int" name="NBANDSV">    -1</i>
   <i type="int" name="NELM">   100</i>
   <i type="int" name="NELMHF">     1</i>
   <i type="int" name="DIM">     3</i>
   <i type="int" name="ANTIRES">     0</i>
   <i name="OMEGAMAX">    -30.00000000</i>
   <i name="OMEGAMIN">    -30.00000000</i>
   <i name="OMEGATL">   -200.00000000</i>
   <i type="int" name="OMEGAGRID">   140</i>
   <i name="CSHIFT">     -0.10000000</i>
   <i type="logical" name="SELFENERGY"> F  </i>
   <i type="logical" name="LSPECTRAL"> F  </i>
   <i type="logical" name="LSPECTRALGW"> F  </i>
   <i type="logical" name="LSINGLES"> F  </i>
   <i type="logical" name="LFERMIGW"> F  </i>
   <i type="logical" name="ODDONLYGW"> F  </i>
   <i type="logical" name="EVENONLYGW"> F  </i>
   <i type="int" name="NKREDLFX">     1</i>
   <i type="int" name="NKREDLFY">     1</i>
   <i type="int" name="NKREDLFZ">     1</i>
   <i type="int" name="MAXMEM">  2800</i>
   <i type="int" name="TELESCOPE">     0</i>
   <i type="int" name="TAUPAR">     1</i>
   <i type="int" name="OMEGAPAR">    -1</i>
   <i name="LAMBDA">      1.00000000</i>
  </separator>
  <separator name="External order field" >
   <i name="OFIELD_KAPPA">      0.00000000</i>
   <v name="OFIELD_K">      0.00000000      0.00000000      0.00000000</v>
   <i name="OFIELD_Q6_NEAR">      0.00000000</i>
   <i name="OFIELD_Q6_FAR">      0.00000000</i>
   <i name="OFIELD_A">      0.00000000</i>
  </separator>
 </parameters>
 <atominfo>
  <atoms>       4 </atoms>
  <types>       1 </types>
  <array name="atoms" >
   <dimension dim="1">ion</dimension>
   <field type="string">element</field>
   <field type="int">atomtype</field>
   <set>
    <rc><c>Al</c><c>   1</c></rc>
    <rc><c>Al</c><c>   1</c></rc>
    <rc><c>Al</c><c>   1</c></rc>
    <rc><c>Al</c><c>   1</c></rc>
   </set>
  </array>
  <array name="atomtypes" >
   <dimension dim="1">type</dimension>
   <field type="int">atomspertype</field>
   <field type="string">element</field>
   <field>mass</field>
   <field>valence</field>
   <field type="string">pseudopotential</field>
   <set>
    <rc><c>   4</c><c>Al</c><c>     26.98100000</c><c>      3.00000000</c><c>  PAW_PBE Al 04Jan2001                  </c></rc>
   </set>
  </array>
 </atominfo>
 <structure name="initialpos" >
  <crystal>
   <varray name="basis" >
    <v>       4.02309700       0.00000000       0.00000000 </v>
    <v>       0.00000000       4.04336400       0.00000000 </v>
    <v>       0.00000000       0.00000000       4.04336400 </v>
   </varray>
   <i name="volume">     65.77277780 </i>
   <varray name="rec_basis" >
    <v>       0.24856473       0.00000000       0.00000000 </v>
    <v>       0.00000000       0.24731882       0.00000000 </v>
    <v>       0.00000000       0.00000000       0.24731882 </v>
   </varray>
  </crystal>
  <varray name="positions" >
   <v>       0.00000000       0.00000000       0.00000000 </v>
   <v>       0.00000000       0.50000000       0.50000000 </v>
   <v>       0.50000000       0.00000000       0.50000000 </v>
   <v>       0.50000000       0.50000000       0.00000000 </v>
  </varray>
 </structure>
 <calculation>
  <scstep>
   <time name="dav">    0.46    0.48</time>
   <time name="total">    0.55    0.58</time>
   <energy>
    <i name="alphaZ">     -0.81706992 </i>
    <i name="ewald">   -294.40101297 </i>
    <i name="hartreedc">     -0.40048327 </i>
    <i name="XCdc">   -104.93412392 </i>
    <i name="pawpsdc">    264.80062850 </i>
    <i name="pawaedc">   -136.98248303 </i>
    <i name="eentropy">      0.00001124 </i>
    <i name="bandstr">     65.22840828 </i>
    <i name="atom">    214.15382826 </i>
    <i name="e_fr_energy">      6.64770317 </i>
    <i name="e_wo_entrp">      6.64769193 </i>
    <i name="e_0_energy">      6.64769943 </i>
   </energy>
  </scstep>
  <scstep>
   <time name="dav">    0.52    0.52</time>
   <time name="total">    0.52    0.52</time>
   <energy>
    <i name="e_fr_energy">    -14.33893000 </i>
    <i name="e_wo_entrp">    -14.33923194 </i>
    <i name="e_0_energy">    -14.33903065 </i>
   </energy>
  </scstep>
  <scstep>
   <time name="dav">    0.54    0.54</time>
   <time name="total">    0.54    0.54</time>
   <energy>
    <i name="e_fr_energy">    -15.06064514 </i>
    <i name="e_wo_entrp">    -15.06057139 </i>
    <i name="e_0_energy">    -15.06062056 </i>
   </energy>
  </scstep>
  <scstep>
   <time name="dav">    0.48    0.48</time>
   <time name="total">    0.49    0.49</time>
   <energy>
    <i name="e_fr_energy">    -15.06605379 </i>
    <i name="e_wo_entrp">    -15.06597369 </i>
    <i name="e_0_energy">    -15.06602709 </i>
   </energy>
  </scstep>
  <scstep>
   <time name="dav">    0.54    0.54</time>
   <time name="total">    0.59    0.59</time>
   <energy>
    <i name="e_fr_energy">    -15.06610862 </i>
    <i name="e_wo_entrp">    -15.06602846 </i>
    <i name="e_0_energy">    -15.06608190 </i>
   </energy>
  </scstep>
  <scstep>
   <time name="dav">    0.48    0.48</time>
   <time name="total">    0.62    0.62</time>
   <energy>
    <i name="e_fr_energy">    -15.01461966 </i>
    <i name="e_wo_entrp">    -15.01457414 </i>
    <i name="e_0_energy">    -15.01460449 </i>
   </energy>
  </scstep>
  <scstep>
   <time name="dav">    0.48    0.48</time>
   <time name="total">    0.61    0.61</time>
   <energy>
    <i name="e_fr_energy">    -14.97703593 </i>
    <i name="e_wo_entrp">    -14.97702405 </i>
    <i name="e_0_energy">    -14.97703197 </i>
   </energy>
  </scstep>
  <scstep>
   <time name="dav">    0.53    0.53</time>
   <time name="total">    0.67    0.67</time>
   <energy>
    <i name="e_fr_energy">    -14.97693155 </i>
    <i name="e_wo_entrp">    -14.97691998 </i>
    <i name="e_0_energy">    -14.97692770 </i>
   </energy>
  </scstep>
  <scstep>
   <time name="dav">    0.37    0.37</time>
   <time name="total">    0.46    0.46</time>
   <energy>
    <i name="alphaZ">     -0.81706992 </i>
    <i name="ewald">   -294.40101297 </i>
    <i name="hartreedc">     -0.42429994 </i>
    <i name="XCdc">   -104.49263008 </i>
    <i name="pawpsdc">    566.31767424 </i>
    <i name="pawaedc">   -438.55320724 </i>
    <i name="eentropy">     -0.00001133 </i>
    <i name="bandstr">     43.23980406 </i>
    <i name="atom">    214.15382826 </i>
    <i name="e_fr_energy">    -14.97692492 </i>
    <i name="e_wo_entrp">    -14.97691359 </i>
    <i name="e_0_energy">    -14.97692115 </i>
   </energy>
  </scstep>
  <structure>
   <crystal>
    <varray name="basis" >
     <v>       4.02309700       0.00000000       0.00000000 </v>
     <v>       0.00000000       4.04336400       0.00000000 </v>
     <v>       0.00000000       0.00000000       4.04336400 </v>
    </varray>
    <i name="volume">     65.77277780 </i>
    <varray name="rec_basis" >
     <v>       0.24856473       0.00000000       0.00000000 </v>
     <v>       0.00000000       0.24731882       0.00000000 </v>
     <v>       0.00000000       0.00000000       0.24731882 </v>
    </varray>
   </crystal>
   <varray name="positions" >
    <v>       0.00000000       0.00000000       0.00000000 </v>
    <v>       0.00000000       0.50000000       0.50000000 </v>
    <v>       0.50000000       0.00000000       0.50000000 </v>
    <v>       0.50000000       0.50000000       0.00000000 </v>
   </varray>
  </structure>
  <varray name="forces" >
   <v>       0.00000000       0.00000000       0.00000000 </v>
   <v>      -0.00000000       0.00000000      -0.00000000 </v>
   <v>       0.00000000      -0.00000000       0.00000000 </v>
   <v>       0.00000000      -0.00000000       0.00000000 </v>
  </varray>
  <varray name="stress" >
   <v>       4.26922819       0.00000000       0.00000000 </v>
   <v>      -0.00000000       3.17006953       0.00000000 </v>
   <v>      -0.00000000       0.00000000       3.17006953 </v>
  </varray>
  <energy>
   <i name="e_fr_energy">    -14.97692492 </i>
   <i name="e_wo_entrp">    -14.97692115 </i>
   <i name="e_0_energy">     -0.00001133 </i>
  </energy>
  <time name="totalsc">    5.78    5.95</time>
  <eigenvalues>
   <array>
    <dimension dim="1">band</dimension>
    <dimension dim="2">kpoint</dimension>
    <dimension dim="3">spin</dimension>
    <field>eigene</field>
    <field>occ</field>
    <set>
     <set comment="spin 1">
      <set comment="kpoint 1">
       <r>   -3.1217    1.0000 </r>
       <r>    5.0804    1.0000 </r>
       <r>    5.0804    1.0000 </r>
       <r>    5.1533    1.0000 </r>
       <r>    6.4007    1.0000 </r>
       <r>    6.4007    1.0000 </r>
       <r>    6.5042    1.0000 </r>
       <r>   13.2569    0.0000 </r>
       <r>   13.3150    0.0000 </r>
       <r>   13.3150    0.0000 </r>
       <r>   13.5857    0.0000 </r>
       <r>   13.5859    0.0000 </r>
      </set>
      <set comment="kpoint 2">
       <r>   -3.0462    1.0000 </r>
       <r>    4.1724    1.0000 </r>
       <r>    5.1496    1.0000 </r>
       <r>    5.1496    1.0000 </r>
       <r>    6.4737    1.0000 </r>
       <r>    6.4737    1.0000 </r>
       <r>    7.6157    1.0000 </r>
       <r>   12.0269    0.0000 </r>
       <r>   12.0269    0.0000 </r>
       <r>   13.1497    0.0000 </r>
       <r>   13.1497    0.0000 </r>
       <r>   13.3315    0.0000 </r>
      </set>
      <set comment="kpoint 3">
       <r>   -2.8197    1.0000 </r>
       <r>    2.8546    1.0000 </r>
       <r>    5.3571    1.0000 </r>
       <r>    5.3571    1.0000 </r>
       <r>    6.6914    1.0000 </r>
       <r>    6.6914    1.0000 </r>
       <r>    9.3253   -0.0000 </r>
       <r>   10.7065    0.0000 </r>
       <r>   10.7065    0.0000 </r>
       <r>   12.1362    0.0000 </r>
       <r>   12.1362    0.0000 </r>
       <r>   13.5552    0.0000 </r>
      </set>
      <set comment="kpoint 4">
       <r>   -2.4430    1.0000 </r>
       <r>    1.6300    1.0000 </r>
       <r>    5.7032    1.0000 </r>
       <r>    5.7032    1.0000 </r>
       <r>    7.0488    1.0000 </r>
       <r>    7.0488    1.0000 </r>
       <r>    9.5230    0.0000 </r>
       <r>    9.5230    0.0000 </r>
       <r>   11.0674    0.0000 </r>
       <r>   11.0674    0.0000 </r>
       <r>   11.2017    0.0000 </r>
       <r>   13.9275    0.0000 </r>
      </set>
      <set comment="kpoint 5">
       <r>   -1.9174    1.0000 </r>
       <r>    0.5331    1.0000 </r>
       <r>    6.1880    1.0000 </r>
       <r>    6.1880    1.0000 </r>
       <r>    7.5304    1.0000 </r>
       <r>    7.5304    1.0000 </r>
       <r>    8.4793   -0.0000 </r>
       <r>    8.4793   -0.0000 </r>
       <r>   10.0827    0.0000 </r>
       <r>   10.0827    0.0000 </r>
       <r>   13.2087    0.0000 </r>
       <r>   14.4486    0.0000 </r>
      </set>
      <set comment="kpoint 6">
       <r>   -1.2445    1.0000 </r>
       <r>   -0.4266    1.0000 </r>
       <r>    6.8121    1.0000 </r>
       <r>    6.8121    1.0000 </r>
       <r>    7.5758    1.0000 </r>
       <r>    7.5758    1.0000 </r>
       <r>    8.0547   -0.0212 </r>
       <r>    8.0547   -0.0212 </r>
       <r>    9.3009   -0.0000 </r>
       <r>    9.3009   -0.0000 </r>
       <r>   15.1183    0.0000 </r>
       <r>   15.1951    0.0000 </r>
      </set>
      <set comment="kpoint 7">
       <r>   -3.0469    1.0000 </r>
       <r>    4.1036    1.0000 </r>
       <r>    5.1489    1.0000 </r>
       <r>    5.2217    1.0000 </r>
       <r>    6.4730    1.0000 </r>
       <r>    6.5764    1.0000 </r>
       <r>    7.5070    1.0000 </r>
       <r>   11.9602    0.0000 </r>
       <r>   12.0271    0.0000 </r>
       <r>   13.0810    0.0000 </r>
       <r>   13.1891    0.0000 </r>
       <r>   13.3888    0.0000 </r>
      </set>
      <set comment="kpoint 8">
       <r>   -2.9714    1.0000 </r>
       <r>    4.1748    1.0000 </r>
       <r>    4.2429    1.0000 </r>
       <r>    5.2180    1.0000 </r>
       <r>    6.5455    1.0000 </r>
       <r>    7.5776    1.0000 </r>
       <r>    7.6855    1.0000 </r>
       <r>   11.0825    0.0000 </r>
       <r>   12.0302    0.0000 </r>
       <r>   12.0962    0.0000 </r>
       <r>   13.1472    0.0000 </r>
       <r>   13.2151    0.0000 </r>
      </set>
      <set comment="kpoint 9">
       <r>   -2.7450    1.0000 </r>
       <r>    2.9261    1.0000 </r>
       <r>    4.3881    1.0000 </r>
       <r>    5.4256    1.0000 </r>
       <r>    6.7608    1.0000 </r>
       <r>    7.7879    1.0000 </r>
       <r>    9.3922    0.0000 </r>
       <r>    9.8239    0.0000 </r>
       <r>   10.7756    0.0000 </r>
       <r>   12.2052    0.0000 </r>
       <r>   12.2402    0.0000 </r>
       <r>   13.0983    0.0000 </r>
      </set>
      <set comment="kpoint 10">
       <r>   -2.3686    1.0000 </r>
       <r>    1.7023    1.0000 </r>
       <r>    4.7430    1.0000 </r>
       <r>    5.7717    1.0000 </r>
       <r>    7.1068    1.0000 </r>
       <r>    8.1315   -0.0000 </r>
       <r>    8.6689   -0.0000 </r>
       <r>    9.5920    0.0000 </r>
       <r>   11.1427    0.0000 </r>
       <r>   11.2632    0.0000 </r>
       <r>   12.0494    0.0000 </r>
       <r>   12.5896    0.0000 </r>
      </set>
      <set comment="kpoint 11">
       <r>   -1.8432    1.0000 </r>
       <r>    0.6060    1.0000 </r>
       <r>    5.2382    1.0000 </r>
       <r>    6.2567    1.0000 </r>
       <r>    7.3728    1.0000 </r>
       <r>    7.8552    1.0022 </r>
       <r>    8.5482   -0.0000 </r>
       <r>    8.5791   -0.0000 </r>
       <r>   10.1824    0.0000 </r>
       <r>   11.0592    0.0000 </r>
       <r>   13.0777    0.0000 </r>
       <r>   13.2470    0.0000 </r>
      </set>
      <set comment="kpoint 12">
       <r>   -1.1706    1.0000 </r>
       <r>   -0.3532    1.0000 </r>
       <r>    5.8711    1.0000 </r>
       <r>    6.6324    1.0000 </r>
       <r>    6.8808    1.0000 </r>
       <r>    7.6446    1.0000 </r>
       <r>    8.2954   -0.0000 </r>
       <r>    8.8287   -0.0000 </r>
       <r>    9.6666    0.0000 </r>
       <r>   10.2013    0.0000 </r>
       <r>   13.7035    0.0000 </r>
       <r>   14.4783    0.0000 </r>
      </set>
      <set comment="kpoint 13">
       <r>   -2.8227    1.0000 </r>
       <r>    2.7969    1.0000 </r>
       <r>    5.3544    1.0000 </r>
       <r>    5.4270    1.0000 </r>
       <r>    6.6886    1.0000 </r>
       <r>    6.7915    1.0000 </r>
       <r>    9.2021   -0.0000 </r>
       <r>   10.6516    0.0000 </r>
       <r>   10.7198    0.0000 </r>
       <r>   12.0797    0.0000 </r>
       <r>   12.1853    0.0000 </r>
       <r>   13.6100    0.0000 </r>
      </set>
      <set comment="kpoint 14">
       <r>   -2.7473    1.0000 </r>
       <r>    2.8692    1.0000 </r>
       <r>    4.4539    1.0000 </r>
       <r>    5.4236    1.0000 </r>
       <r>    6.7587    1.0000 </r>
       <r>    7.8931    1.0235 </r>
       <r>    9.2701   -0.0000 </r>
       <r>    9.8344    0.0000 </r>
       <r>   10.7214    0.0000 </r>
       <r>   12.1496    0.0000 </r>
       <r>   12.3042    0.0000 </r>
       <r>   13.1477    0.0000 </r>
      </set>
      <set comment="kpoint 15">
       <r>   -2.5213    1.0000 </r>
       <r>    3.0859    1.0000 </r>
       <r>    3.1405    1.0000 </r>
       <r>    5.6312    1.0000 </r>
       <r>    6.9599    1.0000 </r>
       <r>    8.6001   -0.0000 </r>
       <r>    9.4706    0.0000 </r>
       <r>    9.5891    0.0000 </r>
       <r>   10.9306    0.0000 </r>
       <r>   10.9828    0.0000 </r>
       <r>   12.3616    0.0000 </r>
       <r>   12.4139    0.0000 </r>
      </set>
      <set comment="kpoint 16">
       <r>   -2.1454    1.0000 </r>
       <r>    1.9189    1.0000 </r>
       <r>    3.4462    1.0000 </r>
       <r>    5.9775    1.0000 </r>
       <r>    7.1047    1.0000 </r>
       <r>    7.6447    1.0000 </r>
       <r>    9.7811    0.0000 </r>
       <r>    9.7989    0.0000 </r>
       <r>   11.2792    0.0000 </r>
       <r>   11.3827    0.0000 </r>
       <r>   11.4271    0.0000 </r>
       <r>   12.7338    0.0000 </r>
      </set>
      <set comment="kpoint 17">
       <r>   -1.6209    1.0000 </r>
       <r>    0.8245    1.0000 </r>
       <r>    3.9491    1.0000 </r>
       <r>    6.2741    1.0000 </r>
       <r>    6.4626    1.0000 </r>
       <r>    7.9265    1.0151 </r>
       <r>    8.7549   -0.0000 </r>
       <r>    9.9427    0.0000 </r>
       <r>   10.7026    0.0000 </r>
       <r>   11.7668    0.0000 </r>
       <r>   12.6621    0.0000 </r>
       <r>   12.9809    0.0000 </r>
      </set>
      <set comment="kpoint 18">
       <r>   -0.9494    1.0000 </r>
       <r>   -0.1332    1.0000 </r>
       <r>    4.5924    1.0000 </r>
       <r>    5.3719    1.0000 </r>
       <r>    7.0870    1.0000 </r>
       <r>    7.8510    1.0016 </r>
       <r>    8.5446   -0.0000 </r>
       <r>    9.2859   -0.0000 </r>
       <r>   11.0824    0.0000 </r>
       <r>   11.8024    0.0000 </r>
       <r>   12.3930    0.0000 </r>
       <r>   13.1571    0.0000 </r>
      </set>
      <set comment="kpoint 19">
       <r>   -2.4497    1.0000 </r>
       <r>    1.5836    1.0000 </r>
       <r>    5.6970    1.0000 </r>
       <r>    5.7694    1.0000 </r>
       <r>    7.0427    1.0000 </r>
       <r>    7.1443    1.0000 </r>
       <r>    9.4795    0.0000 </r>
       <r>    9.5487    0.0000 </r>
       <r>   11.0233    0.0000 </r>
       <r>   11.0617    0.0000 </r>
       <r>   11.1265    0.0000 </r>
       <r>   13.9782    0.0000 </r>
      </set>
      <set comment="kpoint 20">
       <r>   -2.3745    1.0000 </r>
       <r>    1.6567    1.0000 </r>
       <r>    4.8050    1.0000 </r>
       <r>    5.7663    1.0000 </r>
       <r>    7.1019    1.0000 </r>
       <r>    8.2316   -0.0000 </r>
       <r>    8.6902   -0.0000 </r>
       <r>    9.5491    0.0000 </r>
       <r>   11.1002    0.0000 </r>
       <r>   11.1249    0.0000 </r>
       <r>   12.1126    0.0000 </r>
       <r>   12.6504    0.0000 </r>
      </set>
      <set comment="kpoint 21">
       <r>   -2.1492    1.0000 </r>
       <r>    1.8756    1.0000 </r>
       <r>    3.4972    1.0000 </r>
       <r>    5.9740    1.0000 </r>
       <r>    7.1085    1.0000 </r>
       <r>    7.6487    1.0000 </r>
       <r>    9.7581    0.0000 </r>
       <r>    9.8888    0.0000 </r>
       <r>   11.2986    0.0000 </r>
       <r>   11.3280    0.0000 </r>
       <r>   11.3493    0.0000 </r>
       <r>   12.7753    0.0000 </r>
      </set>
      <set comment="kpoint 22">
       <r>   -1.7743    1.0000 </r>
       <r>    2.2398    1.0000 </r>
       <r>    2.2793    1.0000 </r>
       <r>    6.1536    1.0000 </r>
       <r>    6.3205    1.0000 </r>
       <r>    7.7865    1.0000 </r>
       <r>   10.1063    0.0000 </r>
       <r>   10.1437    0.0000 </r>
       <r>   11.3329    0.0000 </r>
       <r>   11.3594    0.0000 </r>
       <r>   12.0219    0.0000 </r>
       <r>   12.0901    0.0000 </r>
      </set>
      <set comment="kpoint 23">
       <r>   -1.2511    1.0000 </r>
       <r>    1.1879    1.0000 </r>
       <r>    2.7479    1.0000 </r>
       <r>    5.1121    1.0000 </r>
       <r>    6.8060    1.0000 </r>
       <r>    8.2726   -0.0000 </r>
       <r>    9.0993   -0.0000 </r>
       <r>   10.5470    0.0000 </r>
       <r>   10.5937    0.0000 </r>
       <r>   12.0188    0.0000 </r>
       <r>   12.2855    0.0000 </r>
       <r>   12.8887    0.0000 </r>
      </set>
      <set comment="kpoint 24">
       <r>   -0.5814    1.0000 </r>
       <r>    0.2327    1.0000 </r>
       <r>    3.3984    1.0000 </r>
       <r>    4.1883    1.0000 </r>
       <r>    7.4307    1.0000 </r>
       <r>    8.1951   -0.0000 </r>
       <r>    8.9097   -0.0000 </r>
       <r>    9.6769    0.0000 </r>
       <r>   11.2202    0.0000 </r>
       <r>   11.9854    0.0000 </r>
       <r>   12.6592    0.0000 </r>
       <r>   12.8675    0.0000 </r>
      </set>
      <set comment="kpoint 25">
       <r>   -1.9293    1.0000 </r>
       <r>    0.4973    1.0000 </r>
       <r>    6.1771    1.0000 </r>
       <r>    6.2491    1.0000 </r>
       <r>    7.5210    1.0000 </r>
       <r>    7.6179    1.0000 </r>
       <r>    8.4459   -0.0000 </r>
       <r>    8.5160   -0.0000 </r>
       <r>   10.0520    0.0000 </r>
       <r>   10.1498    0.0000 </r>
       <r>   13.0508    0.0000 </r>
       <r>   14.4930    0.0000 </r>
      </set>
      <set comment="kpoint 26">
       <r>   -1.8544    1.0000 </r>
       <r>    0.5709    1.0000 </r>
       <r>    5.2949    1.0000 </r>
       <r>    6.2465    1.0000 </r>
       <r>    7.3864    1.0000 </r>
       <r>    7.8641    1.0044 </r>
       <r>    8.5155   -0.0000 </r>
       <r>    8.6667   -0.0000 </r>
       <r>   10.1579    0.0000 </r>
       <r>   11.1327    0.0000 </r>
       <r>   13.0970    0.0000 </r>
       <r>   13.1341    0.0000 </r>
      </set>
      <set comment="kpoint 27">
       <r>   -1.6298    1.0000 </r>
       <r>    0.7916    1.0000 </r>
       <r>    3.9948    1.0000 </r>
       <r>    6.2951    1.0000 </r>
       <r>    6.4544    1.0000 </r>
       <r>    7.9188    1.0314 </r>
       <r>    8.7242   -0.0000 </r>
       <r>    9.9674    0.0000 </r>
       <r>   10.7575    0.0000 </r>
       <r>   11.8110    0.0000 </r>
       <r>   12.7486    0.0000 </r>
       <r>   12.9698    0.0000 </r>
      </set>
      <set comment="kpoint 28">
       <r>   -1.2563    1.0000 </r>
       <r>    1.1587    1.0000 </r>
       <r>    2.7823    1.0000 </r>
       <r>    5.1225    1.0000 </r>
       <r>    6.8012    1.0000 </r>
       <r>    8.2677   -0.0000 </r>
       <r>    9.0721   -0.0000 </r>
       <r>   10.5244    0.0000 </r>
       <r>   10.6264    0.0000 </r>
       <r>   12.0470    0.0000 </r>
       <r>   12.4080    0.0000 </r>
       <r>   12.8989    0.0000 </r>
      </set>
      <set comment="kpoint 29">
       <r>   -0.7351    1.0000 </r>
       <r>    1.6712    1.0000 </r>
       <r>    1.6951    1.0000 </r>
       <r>    4.0584    1.0000 </r>
       <r>    7.2870    1.0000 </r>
       <r>    8.7685   -0.0000 </r>
       <r>    9.5592    0.0000 </r>
       <r>    9.5817    0.0000 </r>
       <r>   11.0463    0.0000 </r>
       <r>   11.0683    0.0000 </r>
       <r>   11.8558    0.0000 </r>
       <r>   13.3086    0.0000 </r>
      </set>
      <set comment="kpoint 30">
       <r>   -0.0677    1.0000 </r>
       <r>    0.7434    1.0000 </r>
       <r>    2.3271    1.0000 </r>
       <r>    3.1242    1.0000 </r>
       <r>    7.9122    1.0354 </r>
       <r>    8.6770   -0.0000 </r>
       <r>    9.4087    0.0000 </r>
       <r>   10.1796    0.0000 </r>
       <r>   10.1855    0.0000 </r>
       <r>   10.9512    0.0000 </r>
       <r>   11.6805    0.0000 </r>
       <r>   12.4364    0.0000 </r>
      </set>
      <set comment="kpoint 31">
       <r>   -1.2630    1.0000 </r>
       <r>   -0.4532    1.0000 </r>
       <r>    6.7951    1.0000 </r>
       <r>    6.8665    1.0000 </r>
       <r>    7.5512    1.0000 </r>
       <r>    7.6221    1.0000 </r>
       <r>    8.0521   -0.0235 </r>
       <r>    8.1182   -0.0002 </r>
       <r>    9.2970   -0.0000 </r>
       <r>    9.3633    0.0000 </r>
       <r>   15.1567    0.0000 </r>
       <r>   15.2222    0.0000 </r>
      </set>
      <set comment="kpoint 32">
       <r>   -1.1885    1.0000 </r>
       <r>   -0.3790    1.0000 </r>
       <r>    5.9210    1.0000 </r>
       <r>    6.6734    1.0000 </r>
       <r>    6.8645    1.0000 </r>
       <r>    7.6207    1.0000 </r>
       <r>    8.2829   -0.0000 </r>
       <r>    8.8452   -0.0000 </r>
       <r>    9.7162    0.0000 </r>
       <r>   10.2807    0.0000 </r>
       <r>   13.7541    0.0000 </r>
       <r>   14.5090    0.0000 </r>
      </set>
      <set comment="kpoint 33">
       <r>   -0.9649    1.0000 </r>
       <r>   -0.1568    1.0000 </r>
       <r>    4.6313    1.0000 </r>
       <r>    5.4027    1.0000 </r>
       <r>    7.0727    1.0000 </r>
       <r>    7.8291    1.0002 </r>
       <r>    8.5307   -0.0000 </r>
       <r>    9.2680   -0.0000 </r>
       <r>   11.1825    0.0000 </r>
       <r>   11.8984    0.0000 </r>
       <r>   12.4311    0.0000 </r>
       <r>   13.1878    0.0000 </r>
      </set>
      <set comment="kpoint 34">
       <r>   -0.5932    1.0000 </r>
       <r>    0.2129    1.0000 </r>
       <r>    3.4261    1.0000 </r>
       <r>    4.2079    1.0000 </r>
       <r>    7.4198    1.0000 </r>
       <r>    8.1766   -0.0000 </r>
       <r>    8.8985   -0.0000 </r>
       <r>    9.6589    0.0000 </r>
       <r>   11.2468    0.0000 </r>
       <r>   12.0045    0.0000 </r>
       <r>   12.6853    0.0000 </r>
       <r>   12.9875    0.0000 </r>
      </set>
      <set comment="kpoint 35">
       <r>   -0.0744    1.0000 </r>
       <r>    0.7288    1.0000 </r>
       <r>    2.3444    1.0000 </r>
       <r>    3.1335    1.0000 </r>
       <r>    7.9061    1.0340 </r>
       <r>    8.6633   -0.0000 </r>
       <r>    9.4024    0.0000 </r>
       <r>   10.1657    0.0000 </r>
       <r>   10.2019    0.0000 </r>
       <r>   10.9600    0.0000 </r>
       <r>   11.6970    0.0000 </r>
       <r>   12.4455    0.0000 </r>
      </set>
      <set comment="kpoint 36">
       <r>    0.5899    1.0000 </r>
       <r>    1.3892    1.0000 </r>
       <r>    1.3972    1.0000 </r>
       <r>    2.1920    1.0000 </r>
       <r>    8.5317   -0.0000 </r>
       <r>    9.2894   -0.0000 </r>
       <r>    9.2969   -0.0000 </r>
       <r>   10.0411    0.0000 </r>
       <r>   10.0550    0.0000 </r>
       <r>   10.8016    0.0000 </r>
       <r>   10.8093    0.0000 </r>
       <r>   11.5643    0.0000 </r>
      </set>
      <set comment="kpoint 37">
       <r>   -2.9721    1.0000 </r>
       <r>    4.1741    1.0000 </r>
       <r>    4.1741    1.0000 </r>
       <r>    5.2902    1.0000 </r>
       <r>    6.6480    1.0000 </r>
       <r>    7.5769    1.0000 </r>
       <r>    7.5769    1.0000 </r>
       <r>   11.0171    0.0000 </r>
       <r>   12.0963    0.0000 </r>
       <r>   12.0963    0.0000 </r>
       <r>   13.2546    0.0000 </r>
       <r>   13.2546    0.0000 </r>
      </set>
      <set comment="kpoint 38">
       <r>   -2.8966    1.0000 </r>
       <r>    4.2452    1.0000 </r>
       <r>    4.2452    1.0000 </r>
       <r>    4.3132    1.0000 </r>
       <r>    7.6467    1.0000 </r>
       <r>    7.6467    1.0000 </r>
       <r>    7.7543    1.0000 </r>
       <r>   11.0878    0.0000 </r>
       <r>   11.1524    0.0000 </r>
       <r>   11.1524    0.0000 </r>
       <r>   13.7796    0.0000 </r>
       <r>   13.8702    0.0000 </r>
      </set>
      <set comment="kpoint 39">
       <r>   -2.6704    1.0000 </r>
       <r>    2.9976    1.0000 </r>
       <r>    4.4584    1.0000 </r>
       <r>    4.4584    1.0000 </r>
       <r>    7.8526    1.0018 </r>
       <r>    7.8526    1.0018 </r>
       <r>    9.4558    0.0000 </r>
       <r>    9.8973    0.0000 </r>
       <r>    9.8973    0.0000 </r>
       <r>   11.3019    0.0000 </r>
       <r>   13.1652    0.0000 </r>
       <r>   13.1652    0.0000 </r>
      </set>
      <set comment="kpoint 40">
       <r>   -2.2941    1.0000 </r>
       <r>    1.7745    1.0000 </r>
       <r>    4.8129    1.0000 </r>
       <r>    4.8129    1.0000 </r>
       <r>    8.1511   -0.0000 </r>
       <r>    8.1511   -0.0000 </r>
       <r>    8.7798   -0.0000 </r>
       <r>    8.7798   -0.0000 </r>
       <r>   11.2771    0.0000 </r>
       <r>   11.7016    0.0000 </r>
       <r>   12.1195    0.0000 </r>
       <r>   12.1195    0.0000 </r>
      </set>
      <set comment="kpoint 41">
       <r>   -1.7690    1.0000 </r>
       <r>    0.6789    1.0000 </r>
       <r>    5.3070    1.0000 </r>
       <r>    5.3070    1.0000 </r>
       <r>    7.6197    1.0000 </r>
       <r>    7.6197    1.0000 </r>
       <r>    8.7482   -0.0000 </r>
       <r>    8.7482   -0.0000 </r>
       <r>   11.1364    0.0000 </r>
       <r>   11.1364    0.0000 </r>
       <r>   12.1032    0.0000 </r>
       <r>   13.3630    0.0000 </r>
      </set>
      <set comment="kpoint 42">
       <r>   -1.0968    1.0000 </r>
       <r>   -0.2798    1.0000 </r>
       <r>    5.9310    1.0000 </r>
       <r>    5.9310    1.0000 </r>
       <r>    6.7387    1.0000 </r>
       <r>    6.7387    1.0000 </r>
       <r>    9.2840   -0.0000 </r>
       <r>    9.2840   -0.0000 </r>
       <r>   10.3236    0.0000 </r>
       <r>   10.3236    0.0000 </r>
       <r>   12.7360    0.0000 </r>
       <r>   13.4967    0.0000 </r>
      </set>
      <set comment="kpoint 43">
       <r>   -2.7480    1.0000 </r>
       <r>    2.8685    1.0000 </r>
       <r>    4.3853    1.0000 </r>
       <r>    5.4955    1.0000 </r>
       <r>    6.8604    1.0000 </r>
       <r>    7.7852    1.0000 </r>
       <r>    9.2694   -0.0000 </r>
       <r>    9.7697    0.0000 </r>
       <r>   10.7888    0.0000 </r>
       <r>   12.2543    0.0000 </r>
       <r>   12.3040    0.0000 </r>
       <r>   13.0384    0.0000 </r>
      </set>
      <set comment="kpoint 44">
       <r>   -2.6727    1.0000 </r>
       <r>    2.9407    1.0000 </r>
       <r>    4.4563    1.0000 </r>
       <r>    4.5241    1.0000 </r>
       <r>    7.8507    1.0015 </r>
       <r>    7.9567    0.7549 </r>
       <r>    9.3347   -0.0000 </r>
       <r>    9.8446    0.0000 </r>
       <r>    9.9077    0.0000 </r>
       <r>   11.3635    0.0000 </r>
       <r>   13.1060    0.0000 </r>
       <r>   13.2144    0.0000 </r>
      </set>
      <set comment="kpoint 45">
       <r>   -2.4468    1.0000 </r>
       <r>    3.1573    1.0000 </r>
       <r>    3.2119    1.0000 </r>
       <r>    4.6689    1.0000 </r>
       <r>    8.0081    0.0366 </r>
       <r>    8.7128   -0.0000 </r>
       <r>    9.4999    0.0000 </r>
       <r>    9.5989    0.0000 </r>
       <r>   10.1129    0.0000 </r>
       <r>   10.1443    0.0000 </r>
       <r>   13.3091    0.0000 </r>
       <r>   13.3659    0.0000 </r>
      </set>
      <set comment="kpoint 46">
       <r>   -2.0711    1.0000 </r>
       <r>    1.9911    1.0000 </r>
       <r>    3.5174    1.0000 </r>
       <r>    5.0218    1.0000 </r>
       <r>    7.4024    1.0000 </r>
       <r>    8.5012   -0.0000 </r>
       <r>    8.8762   -0.0000 </r>
       <r>    9.9359    0.0000 </r>
       <r>   10.3543    0.0000 </r>
       <r>   11.5707    0.0000 </r>
       <r>   12.3324    0.0000 </r>
       <r>   13.6513    0.0000 </r>
      </set>
      <set comment="kpoint 47">
       <r>   -1.5468    1.0000 </r>
       <r>    0.8972    1.0000 </r>
       <r>    4.0198    1.0000 </r>
       <r>    5.5059    1.0000 </r>
       <r>    6.3884    1.0000 </r>
       <r>    7.8504    1.0015 </r>
       <r>    8.9658   -0.0000 </r>
       <r>   10.3440    0.0000 </r>
       <r>   10.8576    0.0000 </r>
       <r>   11.3976    0.0000 </r>
       <r>   12.7318    0.0000 </r>
       <r>   13.1475    0.0000 </r>
      </set>
      <set comment="kpoint 48">
       <r>   -0.8757    1.0000 </r>
       <r>   -0.0600    1.0000 </r>
       <r>    4.6616    1.0000 </r>
       <r>    5.4292    1.0000 </r>
       <r>    6.1855    1.0000 </r>
       <r>    6.9445    1.0000 </r>
       <r>    9.5797    0.0000 </r>
       <r>   10.2672    0.0000 </r>
       <r>   11.2040    0.0000 </r>
       <r>   11.4875    0.0000 </r>
       <r>   11.8783    0.0000 </r>
       <r>   12.2512    0.0000 </r>
      </set>
      <set comment="kpoint 49">
       <r>   -2.3753    1.0000 </r>
       <r>    1.6560    1.0000 </r>
       <r>    4.7367    1.0000 </r>
       <r>    5.8379    1.0000 </r>
       <r>    7.1996    1.0000 </r>
       <r>    8.1259   -0.0001 </r>
       <r>    8.6285   -0.0000 </r>
       <r>    9.6176    0.0000 </r>
       <r>   11.1244    0.0000 </r>
       <r>   11.2015    0.0000 </r>
       <r>   12.0039    0.0000 </r>
       <r>   12.6497    0.0000 </r>
      </set>
      <set comment="kpoint 50">
       <r>   -2.3001    1.0000 </r>
       <r>    1.7290    1.0000 </r>
       <r>    4.8073    1.0000 </r>
       <r>    4.8749    1.0000 </r>
       <r>    8.1490   -0.0000 </r>
       <r>    8.2307   -0.0000 </r>
       <r>    8.7585   -0.0000 </r>
       <r>    8.7984   -0.0000 </r>
       <r>   11.1602    0.0000 </r>
       <r>   11.7387    0.0000 </r>
       <r>   12.0750    0.0000 </r>
       <r>   12.1826    0.0000 </r>
      </set>
      <set comment="kpoint 51">
       <r>   -2.0748    1.0000 </r>
       <r>    1.9478    1.0000 </r>
       <r>    3.5683    1.0000 </r>
       <r>    5.0183    1.0000 </r>
       <r>    7.4130    1.0000 </r>
       <r>    8.4984   -0.0000 </r>
       <r>    8.8394   -0.0000 </r>
       <r>   10.0461    0.0000 </r>
       <r>   10.3986    0.0000 </r>
       <r>   11.4396    0.0000 </r>
       <r>   12.2915    0.0000 </r>
       <r>   13.7059    0.0000 </r>
      </set>
      <set comment="kpoint 52">
       <r>   -1.7002    1.0000 </r>
       <r>    2.3118    1.0000 </r>
       <r>    2.3513    1.0000 </r>
       <r>    5.3615    1.0000 </r>
       <r>    6.2690    1.0000 </r>
       <r>    8.8292   -0.0000 </r>
       <r>    9.2074   -0.0000 </r>
       <r>    9.2445   -0.0000 </r>
       <r>   11.7178    0.0000 </r>
       <r>   11.8343    0.0000 </r>
       <r>   12.6922    0.0000 </r>
       <r>   12.7154    0.0000 </r>
      </set>
      <set comment="kpoint 53">
       <r>   -1.1773    1.0000 </r>
       <r>    1.2604    1.0000 </r>
       <r>    2.8196    1.0000 </r>
       <r>    5.1689    1.0000 </r>
       <r>    5.9016    1.0000 </r>
       <r>    8.2030   -0.0000 </r>
       <r>    9.3188   -0.0000 </r>
       <r>    9.7018    0.0000 </r>
       <r>   11.5185    0.0000 </r>
       <r>   11.9998    0.0000 </r>
       <r>   12.3998    0.0000 </r>
       <r>   12.9984    0.0000 </r>
      </set>
      <set comment="kpoint 54">
       <r>   -0.5079    1.0000 </r>
       <r>    0.3058    1.0000 </r>
       <r>    3.4695    1.0000 </r>
       <r>    4.2578    1.0000 </r>
       <r>    6.5213    1.0000 </r>
       <r>    7.2932    1.0000 </r>
       <r>    9.9462    0.0000 </r>
       <r>   10.3322    0.0000 </r>
       <r>   10.6982    0.0000 </r>
       <r>   11.0988    0.0000 </r>
       <r>   12.9415    0.0000 </r>
       <r>   13.6530    0.0000 </r>
      </set>
      <set comment="kpoint 55">
       <r>   -1.8551    1.0000 </r>
       <r>    0.5702    1.0000 </r>
       <r>    5.2271    1.0000 </r>
       <r>    6.3177    1.0000 </r>
       <r>    7.3849    1.0000 </r>
       <r>    7.8997    1.0295 </r>
       <r>    8.5725   -0.0000 </r>
       <r>    8.5849   -0.0000 </r>
       <r>   10.2469    0.0000 </r>
       <r>   11.0257    0.0000 </r>
       <r>   13.0975    0.0000 </r>
       <r>   13.1327    0.0000 </r>
      </set>
      <set comment="kpoint 56">
       <r>   -1.7802    1.0000 </r>
       <r>    0.6438    1.0000 </r>
       <r>    5.2966    1.0000 </r>
       <r>    5.3635    1.0000 </r>
       <r>    7.5903    1.0000 </r>
       <r>    7.6510    1.0000 </r>
       <r>    8.7400   -0.0000 </r>
       <r>    8.8393   -0.0000 </r>
       <r>   11.1048    0.0000 </r>
       <r>   11.2092    0.0000 </r>
       <r>   12.1545    0.0000 </r>
       <r>   13.2095    0.0000 </r>
      </set>
      <set comment="kpoint 57">
       <r>   -1.5558    1.0000 </r>
       <r>    0.8644    1.0000 </r>
       <r>    4.0654    1.0000 </r>
       <r>    5.4982    1.0000 </r>
       <r>    6.4093    1.0000 </r>
       <r>    7.8199    1.0001 </r>
       <r>    8.9578   -0.0000 </r>
       <r>   10.4391    0.0000 </r>
       <r>   10.9009    0.0000 </r>
       <r>   11.3816    0.0000 </r>
       <r>   12.8180    0.0000 </r>
       <r>   13.1687    0.0000 </r>
      </set>
      <set comment="kpoint 58">
       <r>   -1.1825    1.0000 </r>
       <r>    1.2313    1.0000 </r>
       <r>    2.8540    1.0000 </r>
       <r>    5.1788    1.0000 </r>
       <r>    5.8972    1.0000 </r>
       <r>    8.1756   -0.0000 </r>
       <r>    9.3139   -0.0000 </r>
       <r>    9.7345    0.0000 </r>
       <r>   11.5074    0.0000 </r>
       <r>   12.0099    0.0000 </r>
       <r>   12.5105    0.0000 </r>
       <r>   13.0175    0.0000 </r>
      </set>
      <set comment="kpoint 59">
       <r>   -0.6615    1.0000 </r>
       <r>    1.7435    1.0000 </r>
       <r>    1.7674    1.0000 </r>
       <r>    4.1281    1.0000 </r>
       <r>    6.3758    1.0000 </r>
       <r>    8.6688   -0.0000 </r>
       <r>    8.6915   -0.0000 </r>
       <r>    9.8088    0.0000 </r>
       <r>   10.9738    0.0000 </r>
       <r>   12.0532    0.0000 </r>
       <r>   12.0746    0.0000 </r>
       <r>   14.2863    0.0000 </r>
      </set>
      <set comment="kpoint 60">
       <r>    0.0055    1.0000 </r>
       <r>    0.8162    1.0000 </r>
       <r>    2.3991    1.0000 </r>
       <r>    3.1955    1.0000 </r>
       <r>    7.0084    1.0000 </r>
       <r>    7.7814    1.0000 </r>
       <r>    9.3003   -0.0000 </r>
       <r>   10.0694    0.0000 </r>
       <r>   10.4390    0.0000 </r>
       <r>   11.1986    0.0000 </r>
       <r>   12.6837    0.0000 </r>
       <r>   13.4342    0.0000 </r>
      </set>
      <set comment="kpoint 61">
       <r>   -1.1892    1.0000 </r>
       <r>   -0.3798    1.0000 </r>
       <r>    5.8540    1.0000 </r>
       <r>    6.6092    1.0000 </r>
       <r>    6.9352    1.0000 </r>
       <r>    7.6908    1.0000 </r>
       <r>    8.3738   -0.0000 </r>
       <r>    8.8653   -0.0000 </r>
       <r>    9.6900    0.0000 </r>
       <r>   10.1810    0.0000 </r>
       <r>   13.7519    0.0000 </r>
       <r>   14.5085    0.0000 </r>
      </set>
      <set comment="kpoint 62">
       <r>   -1.1147    1.0000 </r>
       <r>   -0.3056    1.0000 </r>
       <r>    5.9156    1.0000 </r>
       <r>    5.9793    1.0000 </r>
       <r>    6.7165    1.0000 </r>
       <r>    6.7792    1.0000 </r>
       <r>    9.2784   -0.0000 </r>
       <r>    9.3578    0.0000 </r>
       <r>   10.3154    0.0000 </r>
       <r>   10.3955    0.0000 </r>
       <r>   12.7838    0.0000 </r>
       <r>   13.5372    0.0000 </r>
      </set>
      <set comment="kpoint 63">
       <r>   -0.8913    1.0000 </r>
       <r>   -0.0835    1.0000 </r>
       <r>    4.7004    1.0000 </r>
       <r>    5.4587    1.0000 </r>
       <r>    6.1723    1.0000 </r>
       <r>    6.9225    1.0000 </r>
       <r>    9.5666    0.0000 </r>
       <r>   10.2597    0.0000 </r>
       <r>   11.2938    0.0000 </r>
       <r>   11.5249    0.0000 </r>
       <r>   11.9735    0.0000 </r>
       <r>   12.2812    0.0000 </r>
      </set>
      <set comment="kpoint 64">
       <r>   -0.5197    1.0000 </r>
       <r>    0.2859    1.0000 </r>
       <r>    3.4972    1.0000 </r>
       <r>    4.2775    1.0000 </r>
       <r>    6.5103    1.0000 </r>
       <r>    7.2745    1.0000 </r>
       <r>    9.9354    0.0000 </r>
       <r>   10.3588    0.0000 </r>
       <r>   10.6811    0.0000 </r>
       <r>   11.1178    0.0000 </r>
       <r>   13.0605    0.0000 </r>
       <r>   13.6797    0.0000 </r>
      </set>
      <set comment="kpoint 65">
       <r>   -0.0011    1.0000 </r>
       <r>    0.8016    1.0000 </r>
       <r>    2.4164    1.0000 </r>
       <r>    3.2048    1.0000 </r>
       <r>    7.0021    1.0000 </r>
       <r>    7.7675    1.0000 </r>
       <r>    9.3168   -0.0000 </r>
       <r>   10.0783    0.0000 </r>
       <r>   10.4328    0.0000 </r>
       <r>   11.1850    0.0000 </r>
       <r>   12.7003    0.0000 </r>
       <r>   13.4434    0.0000 </r>
      </set>
      <set comment="kpoint 66">
       <r>    0.6628    1.0000 </r>
       <r>    1.4617    1.0000 </r>
       <r>    1.4697    1.0000 </r>
       <r>    2.2640    1.0000 </r>
       <r>    7.6354    1.0000 </r>
       <r>    8.4002   -0.0000 </r>
       <r>    8.4078   -0.0000 </r>
       <r>    9.1711   -0.0000 </r>
       <r>   11.0627    0.0000 </r>
       <r>   11.8138    0.0000 </r>
       <r>   11.8215    0.0000 </r>
       <r>   12.5690    0.0000 </r>
      </set>
      <set comment="kpoint 67">
       <r>   -2.5243    1.0000 </r>
       <r>    3.0830    1.0000 </r>
       <r>    3.0830    1.0000 </r>
       <r>    5.7009    1.0000 </r>
       <r>    7.0559    1.0000 </r>
       <r>    8.5494   -0.0000 </r>
       <r>    9.4682    0.0000 </r>
       <r>    9.4682    0.0000 </r>
       <r>   10.9959    0.0000 </r>
       <r>   10.9959    0.0000 </r>
       <r>   12.4628    0.0000 </r>
       <r>   12.4628    0.0000 </r>
      </set>
      <set comment="kpoint 68">
       <r>   -2.4490    1.0000 </r>
       <r>    3.1551    1.0000 </r>
       <r>    3.1551    1.0000 </r>
       <r>    4.7345    1.0000 </r>
       <r>    8.0901   -0.0022 </r>
       <r>    8.6822   -0.0000 </r>
       <r>    9.4993    0.0000 </r>
       <r>    9.4993    0.0000 </r>
       <r>   10.1535    0.0000 </r>
       <r>   10.1535    0.0000 </r>
       <r>   13.4150    0.0000 </r>
       <r>   13.4150    0.0000 </r>
      </set>
      <set comment="kpoint 69">
       <r>   -2.2235    1.0000 </r>
       <r>    3.3713    1.0000 </r>
       <r>    3.3713    1.0000 </r>
       <r>    3.4258    1.0000 </r>
       <r>    8.7452   -0.0000 </r>
       <r>    8.7913   -0.0000 </r>
       <r>    8.7913   -0.0000 </r>
       <r>    9.8227    0.0000 </r>
       <r>    9.8227    0.0000 </r>
       <r>    9.9365    0.0000 </r>
       <r>   14.0922    0.0000 </r>
       <r>   14.3562    0.0000 </r>
      </set>
      <set comment="kpoint 70">
       <r>   -1.8484    1.0000 </r>
       <r>    2.2073    1.0000 </r>
       <r>    3.7306    1.0000 </r>
       <r>    3.7306    1.0000 </r>
       <r>    7.6419    1.0000 </r>
       <r>    7.6419    1.0000 </r>
       <r>    9.1190   -0.0000 </r>
       <r>   10.1471    0.0000 </r>
       <r>   10.1471    0.0000 </r>
       <r>   11.7798    0.0000 </r>
       <r>   12.9441    0.0000 </r>
       <r>   13.8636    0.0000 </r>
      </set>
      <set comment="kpoint 71">
       <r>   -1.3250    1.0000 </r>
       <r>    1.1153    1.0000 </r>
       <r>    4.2308    1.0000 </r>
       <r>    4.2308    1.0000 </r>
       <r>    6.5965    1.0000 </r>
       <r>    6.5965    1.0000 </r>
       <r>    9.6154    0.0000 </r>
       <r>   10.6197    0.0000 </r>
       <r>   10.6197    0.0000 </r>
       <r>   11.9147    0.0000 </r>
       <r>   12.9430    0.0000 </r>
       <r>   12.9430    0.0000 </r>
      </set>
      <set comment="kpoint 72">
       <r>   -0.6549    1.0000 </r>
       <r>    0.1596    1.0000 </r>
       <r>    4.8599    1.0000 </r>
       <r>    4.8599    1.0000 </r>
       <r>    5.6923    1.0000 </r>
       <r>    5.6923    1.0000 </r>
       <r>   10.2470    0.0000 </r>
       <r>   11.0142    0.0000 </r>
       <r>   11.1823    0.0000 </r>
       <r>   11.1823    0.0000 </r>
       <r>   12.1360    0.0000 </r>
       <r>   12.1360    0.0000 </r>
      </set>
      <set comment="kpoint 73">
       <r>   -2.1521    1.0000 </r>
       <r>    1.8727    1.0000 </r>
       <r>    3.4398    1.0000 </r>
       <r>    6.0435    1.0000 </r>
       <r>    7.1217    1.0000 </r>
       <r>    7.6803    1.0000 </r>
       <r>    9.7779    0.0000 </r>
       <r>    9.8243    0.0000 </r>
       <r>   11.2979    0.0000 </r>
       <r>   11.3407    0.0000 </r>
       <r>   11.4393    0.0000 </r>
       <r>   12.8229    0.0000 </r>
      </set>
      <set comment="kpoint 74">
       <r>   -2.0771    1.0000 </r>
       <r>    1.9456    1.0000 </r>
       <r>    3.5117    1.0000 </r>
       <r>    5.0834    1.0000 </r>
       <r>    7.3646    1.0000 </r>
       <r>    8.5978   -0.0000 </r>
       <r>    8.8974   -0.0000 </r>
       <r>    9.9318    0.0000 </r>
       <r>   10.4088    0.0000 </r>
       <r>   11.4380    0.0000 </r>
       <r>   12.3950    0.0000 </r>
       <r>   13.6128    0.0000 </r>
      </set>
      <set comment="kpoint 75">
       <r>   -1.8522    1.0000 </r>
       <r>    2.1641    1.0000 </r>
       <r>    3.7270    1.0000 </r>
       <r>    3.7813    1.0000 </r>
       <r>    7.6013    1.0000 </r>
       <r>    7.6530    1.0000 </r>
       <r>    9.1669   -0.0000 </r>
       <r>   10.1439    0.0000 </r>
       <r>   10.2626    0.0000 </r>
       <r>   11.6440    0.0000 </r>
       <r>   12.9550    0.0000 </r>
       <r>   13.8161    0.0000 </r>
      </set>
      <set comment="kpoint 76">
       <r>   -1.4781    1.0000 </r>
       <r>    2.5275    1.0000 </r>
       <r>    2.5669    1.0000 </r>
       <r>    4.0841    1.0000 </r>
       <r>    6.4779    1.0000 </r>
       <r>    7.9598    0.7090 </r>
       <r>    7.9975    0.1312 </r>
       <r>   10.4935    0.0000 </r>
       <r>   11.8003    0.0000 </r>
       <r>   11.9799    0.0000 </r>
       <r>   12.1118    0.0000 </r>
       <r>   14.1575    0.0000 </r>
      </set>
      <set comment="kpoint 77">
       <r>   -0.9560    1.0000 </r>
       <r>    1.4779    1.0000 </r>
       <r>    3.0343    1.0000 </r>
       <r>    4.5723    1.0000 </r>
       <r>    5.4325    1.0000 </r>
       <r>    6.9476    1.0000 </r>
       <r>    8.4554   -0.0000 </r>
       <r>   10.7652    0.0000 </r>
       <r>   10.9786    0.0000 </r>
       <r>   12.4105    0.0000 </r>
       <r>   13.3224    0.0000 </r>
       <r>   14.0561    0.0000 </r>
      </set>
      <set comment="kpoint 78">
       <r>   -0.2876    1.0000 </r>
       <r>    0.5248    1.0000 </r>
       <r>    3.6820    1.0000 </r>
       <r>    4.4572    1.0000 </r>
       <r>    5.2632    1.0000 </r>
       <r>    6.0307    1.0000 </r>
       <r>    9.0891   -0.0000 </r>
       <r>    9.8599    0.0000 </r>
       <r>   11.5910    0.0000 </r>
       <r>   12.2897    0.0000 </r>
       <r>   13.1894    0.0000 </r>
       <r>   13.8639    0.0000 </r>
      </set>
      <set comment="kpoint 79">
       <r>   -1.6328    1.0000 </r>
       <r>    0.7887    1.0000 </r>
       <r>    3.9378    1.0000 </r>
       <r>    6.2426    1.0000 </r>
       <r>    6.5234    1.0000 </r>
       <r>    8.0154   -0.0029 </r>
       <r>    8.7913   -0.0000 </r>
       <r>    9.9739    0.0000 </r>
       <r>   10.7294    0.0000 </r>
       <r>   11.8231    0.0000 </r>
       <r>   12.6262    0.0000 </r>
       <r>   13.0005    0.0000 </r>
      </set>
      <set comment="kpoint 80">
       <r>   -1.5580    1.0000 </r>
       <r>    0.8622    1.0000 </r>
       <r>    4.0092    1.0000 </r>
       <r>    5.5604    1.0000 </r>
       <r>    6.3577    1.0000 </r>
       <r>    7.8828    1.0146 </r>
       <r>    9.0618   -0.0000 </r>
       <r>   10.3409    0.0000 </r>
       <r>   10.9112    0.0000 </r>
       <r>   11.4643    0.0000 </r>
       <r>   12.6968    0.0000 </r>
       <r>   13.1785    0.0000 </r>
      </set>
      <set comment="kpoint 81">
       <r>   -1.3339    1.0000 </r>
       <r>    1.0825    1.0000 </r>
       <r>    4.2224    1.0000 </r>
       <r>    4.2762    1.0000 </r>
       <r>    6.5655    1.0000 </r>
       <r>    6.6181    1.0000 </r>
       <r>    9.6591    0.0000 </r>
       <r>   10.6123    0.0000 </r>
       <r>   10.7294    0.0000 </r>
       <r>   11.9357    0.0000 </r>
       <r>   12.9113    0.0000 </r>
       <r>   13.0284    0.0000 </r>
      </set>
      <set comment="kpoint 82">
       <r>   -0.9612    1.0000 </r>
       <r>    1.4489    1.0000 </r>
       <r>    3.0686    1.0000 </r>
       <r>    4.5677    1.0000 </r>
       <r>    5.4426    1.0000 </r>
       <r>    6.9198    1.0000 </r>
       <r>    8.4883   -0.0000 </r>
       <r>   10.7753    0.0000 </r>
       <r>   10.9739    0.0000 </r>
       <r>   12.5237    0.0000 </r>
       <r>   13.3074    0.0000 </r>
       <r>   13.9193    0.0000 </r>
      </set>
      <set comment="kpoint 83">
       <r>   -0.4410    1.0000 </r>
       <r>    1.9603    1.0000 </r>
       <r>    1.9841    1.0000 </r>
       <r>    4.3278    1.0000 </r>
       <r>    5.1159    1.0000 </r>
       <r>    7.4157    1.0000 </r>
       <r>    7.4386    1.0000 </r>
       <r>    9.7351    0.0000 </r>
       <r>   11.4637    0.0000 </r>
       <r>   13.6349    0.0000 </r>
       <r>   13.6489    0.0000 </r>
       <r>   14.5078    0.0000 </r>
      </set>
      <set comment="kpoint 84">
       <r>    0.2250    1.0000 </r>
       <r>    1.0345    1.0000 </r>
       <r>    2.6146    1.0000 </r>
       <r>    3.4086    1.0000 </r>
       <r>    5.7423    1.0000 </r>
       <r>    6.5213    1.0000 </r>
       <r>    8.0516   -0.0240 </r>
       <r>    8.8256   -0.0000 </r>
       <r>   12.0832    0.0000 </r>
       <r>   12.8241    0.0000 </r>
       <r>   14.2766    0.0000 </r>
       <r>   15.0162    0.0000 </r>
      </set>
      <set comment="kpoint 85">
       <r>   -0.9679    1.0000 </r>
       <r>   -0.1597    1.0000 </r>
       <r>    4.5748    1.0000 </r>
       <r>    5.3471    1.0000 </r>
       <r>    7.1412    1.0000 </r>
       <r>    7.8970    1.0271 </r>
       <r>    8.6287   -0.0000 </r>
       <r>    9.3594    0.0000 </r>
       <r>   11.0690    0.0000 </r>
       <r>   11.7775    0.0000 </r>
       <r>   12.4426    0.0000 </r>
       <r>   13.1984    0.0000 </r>
      </set>
      <set comment="kpoint 86">
       <r>   -0.8935    1.0000 </r>
       <r>   -0.0857    1.0000 </r>
       <r>    4.6448    1.0000 </r>
       <r>    5.4068    1.0000 </r>
       <r>    6.2334    1.0000 </r>
       <r>    6.9862    1.0000 </r>
       <r>    9.6684    0.0000 </r>
       <r>   10.3352    0.0000 </r>
       <r>   11.2021    0.0000 </r>
       <r>   11.5352    0.0000 </r>
       <r>   11.8551    0.0000 </r>
       <r>   12.2912    0.0000 </r>
      </set>
      <set comment="kpoint 87">
       <r>   -0.6704    1.0000 </r>
       <r>    0.1361    1.0000 </r>
       <r>    4.8463    1.0000 </r>
       <r>    4.8970    1.0000 </r>
       <r>    5.6718    1.0000 </r>
       <r>    5.7220    1.0000 </r>
       <r>   10.2845    0.0000 </r>
       <r>   11.0441    0.0000 </r>
       <r>   11.1776    0.0000 </r>
       <r>   11.2728    0.0000 </r>
       <r>   12.1274    0.0000 </r>
       <r>   12.2226    0.0000 </r>
      </set>
      <set comment="kpoint 88">
       <r>   -0.2994    1.0000 </r>
       <r>    0.5050    1.0000 </r>
       <r>    3.7095    1.0000 </r>
       <r>    4.4760    1.0000 </r>
       <r>    5.2529    1.0000 </r>
       <r>    6.0120    1.0000 </r>
       <r>    9.1158   -0.0000 </r>
       <r>    9.8789    0.0000 </r>
       <r>   11.5810    0.0000 </r>
       <r>   12.2821    0.0000 </r>
       <r>   13.2986    0.0000 </r>
       <r>   13.9735    0.0000 </r>
      </set>
      <set comment="kpoint 89">
       <r>    0.2184    1.0000 </r>
       <r>    1.0199    1.0000 </r>
       <r>    2.6319    1.0000 </r>
       <r>    3.4179    1.0000 </r>
       <r>    5.7360    1.0000 </r>
       <r>    6.5073    1.0000 </r>
       <r>    8.0682   -0.0105 </r>
       <r>    8.8346   -0.0000 </r>
       <r>   12.0770    0.0000 </r>
       <r>   12.8110    0.0000 </r>
       <r>   14.2939    0.0000 </r>
       <r>   15.0251    0.0000 </r>
      </set>
      <set comment="kpoint 90">
       <r>    0.8813    1.0000 </r>
       <r>    1.6790    1.0000 </r>
       <r>    1.6870    1.0000 </r>
       <r>    2.4798    1.0000 </r>
       <r>    6.3738    1.0000 </r>
       <r>    7.1449    1.0000 </r>
       <r>    7.1525    1.0000 </r>
       <r>    7.9216    1.0270 </r>
       <r>   12.6979    0.0000 </r>
       <r>   13.4339    0.0000 </r>
       <r>   13.4417    0.0000 </r>
       <r>   14.1753    0.0000 </r>
      </set>
      <set comment="kpoint 91">
       <r>   -1.7810    1.0000 </r>
       <r>    2.2333    1.0000 </r>
       <r>    2.2333    1.0000 </r>
       <r>    6.1122    1.0000 </r>
       <r>    6.3863    1.0000 </r>
       <r>    7.8803    1.0128 </r>
       <r>   10.1688    0.0000 </r>
       <r>   10.1688    0.0000 </r>
       <r>   11.3622    0.0000 </r>
       <r>   11.3622    0.0000 </r>
       <r>   12.0461    0.0000 </r>
       <r>   12.0461    0.0000 </r>
      </set>
      <set comment="kpoint 92">
       <r>   -1.7061    1.0000 </r>
       <r>    2.3060    1.0000 </r>
       <r>    2.3060    1.0000 </r>
       <r>    5.4206    1.0000 </r>
       <r>    6.2284    1.0000 </r>
       <r>    8.9306   -0.0000 </r>
       <r>    9.2662   -0.0000 </r>
       <r>    9.2662   -0.0000 </r>
       <r>   11.7173    0.0000 </r>
       <r>   11.7173    0.0000 </r>
       <r>   12.7735    0.0000 </r>
       <r>   12.7735    0.0000 </r>
      </set>
      <set comment="kpoint 93">
       <r>   -1.4818    1.0000 </r>
       <r>    2.5239    1.0000 </r>
       <r>    2.5239    1.0000 </r>
       <r>    4.1345    1.0000 </r>
       <r>    6.4367    1.0000 </r>
       <r>    8.0087    0.0329 </r>
       <r>    8.0087    0.0329 </r>
       <r>   10.6099    0.0000 </r>
       <r>   11.8112    0.0000 </r>
       <r>   11.9770    0.0000 </r>
       <r>   11.9770    0.0000 </r>
       <r>   14.2679    0.0000 </r>
      </set>
      <set comment="kpoint 94">
       <r>   -1.1087    1.0000 </r>
       <r>    2.8861    1.0000 </r>
       <r>    2.8861    1.0000 </r>
       <r>    2.9254    1.0000 </r>
       <r>    6.7915    1.0000 </r>
       <r>    6.8296    1.0000 </r>
       <r>    6.8296    1.0000 </r>
       <r>   10.6509    0.0000 </r>
       <r>   12.3294    0.0000 </r>
       <r>   12.3294    0.0000 </r>
       <r>   12.4623    0.0000 </r>
       <r>   15.3198    0.0000 </r>
      </set>
      <set comment="kpoint 95">
       <r>   -0.5879    1.0000 </r>
       <r>    1.8397    1.0000 </r>
       <r>    3.3905    1.0000 </r>
       <r>    3.3905    1.0000 </r>
       <r>    5.7728    1.0000 </r>
       <r>    5.7728    1.0000 </r>
       <r>    7.2882    1.0000 </r>
       <r>    9.6102    0.0000 </r>
       <r>   12.8037    0.0000 </r>
       <r>   12.8037    0.0000 </r>
       <r>   14.4386    0.0000 </r>
       <r>   14.9794    0.0000 </r>
      </set>
      <set comment="kpoint 96">
       <r>    0.0787    1.0000 </r>
       <r>    0.8890    1.0000 </r>
       <r>    4.0263    1.0000 </r>
       <r>    4.0263    1.0000 </r>
       <r>    4.8592    1.0000 </r>
       <r>    4.8592    1.0000 </r>
       <r>    7.9250    1.0195 </r>
       <r>    8.6999   -0.0000 </r>
       <r>   13.3710    0.0000 </r>
       <r>   13.3710    0.0000 </r>
       <r>   14.2332    0.0000 </r>
       <r>   14.2332    0.0000 </r>
      </set>
      <set comment="kpoint 97">
       <r>   -1.2630    1.0000 </r>
       <r>    1.1522    1.0000 </r>
       <r>    2.7365    1.0000 </r>
       <r>    5.0781    1.0000 </r>
       <r>    6.8665    1.0000 </r>
       <r>    8.3642   -0.0000 </r>
       <r>    9.1354   -0.0000 </r>
       <r>   10.6132    0.0000 </r>
       <r>   10.6510    0.0000 </r>
       <r>   12.1052    0.0000 </r>
       <r>   12.2773    0.0000 </r>
       <r>   12.9213    0.0000 </r>
      </set>
      <set comment="kpoint 98">
       <r>   -1.1884    1.0000 </r>
       <r>    1.2255    1.0000 </r>
       <r>    2.8089    1.0000 </r>
       <r>    5.1379    1.0000 </r>
       <r>    5.9554    1.0000 </r>
[...]
       <r>    1.0931    1.0000 </r>
       <r>    1.8895    1.0000 </r>
       <r>    3.4577    1.0000 </r>
       <r>    3.4803    1.0000 </r>
       <r>    4.2793    1.0000 </r>
       <r>    4.3018    1.0000 </r>
       <r>    5.8479    1.0000 </r>
       <r>    6.6226    1.0000 </r>
       <r>   15.7793    0.0000 </r>
       <r>   15.9113    0.0000 </r>
       <r>   16.4690    0.0000 </r>
       <r>   16.5965    0.0000 </r>
      </set>
      <set comment="kpoint 120">
       <r>    1.7519    1.0000 </r>
       <r>    2.5437    1.0000 </r>
       <r>    2.5516    1.0000 </r>
       <r>    3.3304    1.0000 </r>
       <r>    4.1424    1.0000 </r>
       <r>    4.9139    1.0000 </r>
       <r>    4.9217    1.0000 </r>
       <r>    5.6990    1.0000 </r>
       <r>   16.3745    0.0000 </r>
       <r>   17.0029    0.0000 </r>
       <r>   17.0172    0.0000 </r>
       <r>   17.6743    0.0000 </r>
      </set>
      <set comment="kpoint 121">
       <r>    0.5716    1.0000 </r>
       <r>    1.3711    1.0000 </r>
       <r>    1.3711    1.0000 </r>
       <r>    2.1660    1.0000 </r>
       <r>    8.5846   -0.0000 </r>
       <r>    9.3416    0.0000 </r>
       <r>    9.3416    0.0000 </r>
       <r>   10.0990    0.0000 </r>
       <r>   10.1276    0.0000 </r>
       <r>   10.8884    0.0000 </r>
       <r>   10.8884    0.0000 </r>
       <r>   11.6440    0.0000 </r>
      </set>
      <set comment="kpoint 122">
       <r>    0.6453    1.0000 </r>
       <r>    1.4443    1.0000 </r>
       <r>    1.4443    1.0000 </r>
       <r>    2.2388    1.0000 </r>
       <r>    7.6847    1.0000 </r>
       <r>    8.4490   -0.0000 </r>
       <r>    8.4490   -0.0000 </r>
       <r>    9.2120   -0.0000 </r>
       <r>   11.1540    0.0000 </r>
       <r>   11.9050    0.0000 </r>
       <r>   11.9050    0.0000 </r>
       <r>   12.6527    0.0000 </r>
      </set>
      <set comment="kpoint 123">
       <r>    0.8660    1.0000 </r>
       <r>    1.6638    1.0000 </r>
       <r>    1.6638    1.0000 </r>
       <r>    2.4568    1.0000 </r>
       <r>    6.4123    1.0000 </r>
       <r>    7.1831    1.0000 </r>
       <r>    7.1831    1.0000 </r>
       <r>    7.9521    0.8172 </r>
       <r>   12.8028    0.0000 </r>
       <r>   13.5384    0.0000 </r>
       <r>   13.5384    0.0000 </r>
       <r>   14.2720    0.0000 </r>
      </set>
      <set comment="kpoint 124">
       <r>    1.2331    1.0000 </r>
       <r>    2.0287    1.0000 </r>
       <r>    2.0287    1.0000 </r>
       <r>    2.8187    1.0000 </r>
       <r>    5.2203    1.0000 </r>
       <r>    5.9955    1.0000 </r>
       <r>    5.9955    1.0000 </r>
       <r>    6.7693    1.0000 </r>
       <r>   14.6117    0.0000 </r>
       <r>   15.3181    0.0000 </r>
       <r>   15.3181    0.0000 </r>
       <r>   16.0266    0.0000 </r>
      </set>
      <set comment="kpoint 125">
       <r>    1.7453    1.0000 </r>
       <r>    2.5372    1.0000 </r>
       <r>    2.5372    1.0000 </r>
       <r>    3.3166    1.0000 </r>
       <r>    4.1588    1.0000 </r>
       <r>    4.9308    1.0000 </r>
       <r>    4.9308    1.0000 </r>
       <r>    5.7081    1.0000 </r>
       <r>   16.5088    0.0000 </r>
       <r>   17.1306    0.0000 </r>
       <r>   17.1306    0.0000 </r>
       <r>   17.7469    0.0000 </r>
      </set>
      <set comment="kpoint 126">
       <r>    2.4004    1.0000 </r>
       <r>    3.1810    1.0000 </r>
       <r>    3.1810    1.0000 </r>
       <r>    3.1886    1.0000 </r>
       <r>    3.9999    1.0000 </r>
       <r>    4.0075    1.0000 </r>
       <r>    4.0075    1.0000 </r>
       <r>    4.7808    1.0000 </r>
       <r>   18.2584    0.0000 </r>
       <r>   18.2603    0.0000 </r>
       <r>   18.3994    0.0000 </r>
       <r>   18.4474    0.0000 </r>
      </set>
     </set>
    </set>
   </array>
  </eigenvalues>
  <separator name="orbital magnetization" >
   <v name="MAGDIPOLOUT">      0.00000000      0.00000000      0.00000000</v>
  </separator>
  <dos>
   <i name="efermi">      7.97259794 </i>
   <total>
    <array>
     <dimension dim="1">gridpoints</dimension>
     <dimension dim="2">spin</dimension>
     <field>energy</field>
     <field>total</field>
     <field>integrated</field>
     <set>
      <set comment="spin 1">
       <r>    -4.2002     0.0000     0.0000 </r>
       <r>    -4.1211     0.0000     0.0000 </r>
       <r>    -4.0420     0.0000     0.0000 </r>
       <r>    -3.9629     0.0000     0.0000 </r>
       <r>    -3.8839     0.0000     0.0000 </r>
       <r>    -3.8048     0.0000     0.0000 </r>
       <r>    -3.7257     0.0000     0.0000 </r>
       <r>    -3.6466     0.0000     0.0000 </r>
       <r>    -3.5675    -0.0000    -0.0000 </r>
       <r>    -3.4884    -0.0000    -0.0000 </r>
       <r>    -3.4093    -0.0000    -0.0000 </r>
       <r>    -3.3302    -0.0000    -0.0000 </r>
       <r>    -3.2512    -0.0000    -0.0000 </r>
       <r>    -3.1721    -0.0006    -0.0000 </r>
       <r>    -3.0930     0.0157     0.0012 </r>
       <r>    -3.0139     0.1110     0.0100 </r>
       <r>    -2.9348     0.2315     0.0283 </r>
       <r>    -2.8557     0.1585     0.0408 </r>
       <r>    -2.7766     0.1469     0.0524 </r>
       <r>    -2.6976     0.4868     0.0909 </r>
       <r>    -2.6185     0.4012     0.1227 </r>
       <r>    -2.5394     0.0328     0.1253 </r>
       <r>    -2.4603     0.3499     0.1529 </r>
       <r>    -2.3812     0.5778     0.1986 </r>
       <r>    -2.3021     0.4893     0.2373 </r>
       <r>    -2.2230     0.3248     0.2630 </r>
       <r>    -2.1439     0.3156     0.2880 </r>
       <r>    -2.0649     0.8235     0.3531 </r>
       <r>    -1.9858     0.3140     0.3779 </r>
       <r>    -1.9067     0.0501     0.3819 </r>
       <r>    -1.8276     0.8107     0.4460 </r>
       <r>    -1.7485     0.7674     0.5067 </r>
       <r>    -1.6694     0.5050     0.5467 </r>
       <r>    -1.5903     0.4952     0.5858 </r>
       <r>    -1.5112     0.9230     0.6588 </r>
       <r>    -1.4322     0.4346     0.6932 </r>
       <r>    -1.3531     0.0642     0.6983 </r>
       <r>    -1.2740     0.5143     0.7390 </r>
       <r>    -1.1949     0.8680     0.8076 </r>
       <r>    -1.1158     1.2201     0.9041 </r>
       <r>    -1.0367     0.3105     0.9287 </r>
       <r>    -0.9576     0.7453     0.9876 </r>
       <r>    -0.8785     1.2477     1.0863 </r>
       <r>    -0.7995     0.3131     1.1110 </r>
       <r>    -0.7204     0.1445     1.1225 </r>
       <r>    -0.6413     0.8331     1.1884 </r>
       <r>    -0.5622     0.9853     1.2663 </r>
       <r>    -0.4831     0.9600     1.3422 </r>
       <r>    -0.4040     0.6253     1.3917 </r>
       <r>    -0.3249     0.5853     1.4379 </r>
       <r>    -0.2459     1.2353     1.5356 </r>
       <r>    -0.1668     0.0724     1.5414 </r>
       <r>    -0.0877     0.9475     1.6163 </r>
       <r>    -0.0086     1.6522     1.7470 </r>
       <r>     0.0705     0.7400     1.8055 </r>
       <r>     0.1496     0.4553     1.8415 </r>
       <r>     0.2287     1.1253     1.9305 </r>
       <r>     0.3078     1.1697     2.0230 </r>
       <r>     0.3868     0.2076     2.0394 </r>
       <r>     0.4659     0.1374     2.0503 </r>
       <r>     0.5450     1.0215     2.1311 </r>
       <r>     0.6241     1.6571     2.2621 </r>
       <r>     0.7032     0.9100     2.3341 </r>
       <r>     0.7823     0.6915     2.3888 </r>
       <r>     0.8614     1.6610     2.5202 </r>
       <r>     0.9405     1.2771     2.6212 </r>
       <r>     1.0195     0.3736     2.6507 </r>
       <r>     1.0986     1.0420     2.7331 </r>
       <r>     1.1777     0.6680     2.7859 </r>
       <r>     1.2568     1.2005     2.8809 </r>
       <r>     1.3359     0.3297     2.9070 </r>
       <r>     1.4150     1.2690     3.0073 </r>
       <r>     1.4941     1.8213     3.1514 </r>
       <r>     1.5731     0.1229     3.1611 </r>
       <r>     1.6522     0.4286     3.1950 </r>
       <r>     1.7313     2.0174     3.3545 </r>
       <r>     1.8104     1.4835     3.4719 </r>
       <r>     1.8895     0.6727     3.5251 </r>
       <r>     1.9686     1.5666     3.6490 </r>
       <r>     2.0477     1.3860     3.7586 </r>
       <r>     2.1268     0.3114     3.7832 </r>
       <r>     2.2058     0.5566     3.8272 </r>
       <r>     2.2849     1.0354     3.9091 </r>
       <r>     2.3640     2.1987     4.0830 </r>
       <r>     2.4431     1.1555     4.1744 </r>
       <r>     2.5222     0.8527     4.2418 </r>
       <r>     2.6013     1.7088     4.3770 </r>
       <r>     2.6804     0.6238     4.4263 </r>
       <r>     2.7595     0.1964     4.4418 </r>
       <r>     2.8385     1.5091     4.5612 </r>
       <r>     2.9176     1.4330     4.6745 </r>
       <r>     2.9967     1.3157     4.7786 </r>
       <r>     3.0758     1.1201     4.8672 </r>
       <r>     3.1549     1.2469     4.9658 </r>
       <r>     3.2340     1.8958     5.1157 </r>
       <r>     3.3131     0.1359     5.1265 </r>
       <r>     3.3921     1.4145     5.2383 </r>
       <r>     3.4712     2.9856     5.4745 </r>
       <r>     3.5503     1.6786     5.6072 </r>
       <r>     3.6294     0.2132     5.6241 </r>
       <r>     3.7085     0.8429     5.6907 </r>
       <r>     3.7876     1.7524     5.8293 </r>
       <r>     3.8667     0.2346     5.8479 </r>
       <r>     3.9458     0.4730     5.8853 </r>
       <r>     4.0248     1.5190     6.0054 </r>
       <r>     4.1039     1.7877     6.1468 </r>
       <r>     4.1830     1.3717     6.2553 </r>
       <r>     4.2621     2.0718     6.4191 </r>
       <r>     4.3412     2.0863     6.5842 </r>
       <r>     4.4203     0.4507     6.6198 </r>
       <r>     4.4994     1.5454     6.7420 </r>
       <r>     4.5785     1.3788     6.8511 </r>
       <r>     4.6575     1.6847     6.9843 </r>
       <r>     4.7366     1.3187     7.0886 </r>
       <r>     4.8157     1.0213     7.1694 </r>
       <r>     4.8948     2.2084     7.3440 </r>
       <r>     4.9739     1.1187     7.4325 </r>
       <r>     5.0530     0.5658     7.4772 </r>
       <r>     5.1321     1.1275     7.5664 </r>
       <r>     5.2112     1.9052     7.7171 </r>
       <r>     5.2902     1.7158     7.8528 </r>
       <r>     5.3693     2.2612     8.0316 </r>
       <r>     5.4484     2.4959     8.2290 </r>
       <r>     5.5275     1.2390     8.3270 </r>
       <r>     5.6066     0.3538     8.3550 </r>
       <r>     5.6857     0.6238     8.4043 </r>
       <r>     5.7648     2.3267     8.5883 </r>
       <r>     5.8438     1.4018     8.6992 </r>
       <r>     5.9229     1.3995     8.8099 </r>
       <r>     6.0020     2.1929     8.9833 </r>
       <r>     6.0811     1.1317     9.0728 </r>
       <r>     6.1602     0.3346     9.0993 </r>
       <r>     6.2393     1.3963     9.2097 </r>
       <r>     6.3184     1.9453     9.3635 </r>
       <r>     6.3975     1.3689     9.4718 </r>
       <r>     6.4765     1.3853     9.5814 </r>
       <r>     6.5556     2.0647     9.7447 </r>
       <r>     6.6347     1.8484     9.8908 </r>
       <r>     6.7138     0.7678     9.9516 </r>
       <r>     6.7929     1.6715    10.0838 </r>
       <r>     6.8720     1.3665    10.1918 </r>
       <r>     6.9511     2.2420    10.3691 </r>
       <r>     7.0302     1.5705    10.4933 </r>
       <r>     7.1092     1.2198    10.5898 </r>
       <r>     7.1883     1.4364    10.7034 </r>
       <r>     7.2674     0.4215    10.7367 </r>
       <r>     7.3465     1.3020    10.8397 </r>
       <r>     7.4256     1.7985    10.9820 </r>
       <r>     7.5047     1.0923    11.0683 </r>
       <r>     7.5838     0.7610    11.1285 </r>
       <r>     7.6628     3.2760    11.3876 </r>
       <r>     7.7419     1.6199    11.5157 </r>
       <r>     7.8210     1.4880    11.6334 </r>
       <r>     7.9001     2.5047    11.8315 </r>
       <r>     7.9792     2.2928    12.0128 </r>
       <r>     8.0583     1.5324    12.1340 </r>
       <r>     8.1374     1.2393    12.2320 </r>
       <r>     8.2165     1.5519    12.3548 </r>
       <r>     8.2955     1.2900    12.4568 </r>
       <r>     8.3746     0.3546    12.4849 </r>
       <r>     8.4537     1.0650    12.5691 </r>
       <r>     8.5328     1.9818    12.7258 </r>
       <r>     8.6119     1.8303    12.8706 </r>
       <r>     8.6910     1.6728    13.0029 </r>
       <r>     8.7701     2.9272    13.2344 </r>
       <r>     8.8492     2.7507    13.4519 </r>
       <r>     8.9282     1.7653    13.5915 </r>
       <r>     9.0073     0.7753    13.6528 </r>
       <r>     9.0864     0.6374    13.7032 </r>
       <r>     9.1655     1.5069    13.8224 </r>
       <r>     9.2446     1.1051    13.9098 </r>
       <r>     9.3237     3.0544    14.1514 </r>
       <r>     9.4028     1.8975    14.3014 </r>
       <r>     9.4819     0.9709    14.3782 </r>
       <r>     9.5609     1.2831    14.4797 </r>
       <r>     9.6400     2.1937    14.6532 </r>
       <r>     9.7191     1.6884    14.7867 </r>
       <r>     9.7982     1.9677    14.9424 </r>
       <r>     9.8773     1.9226    15.0944 </r>
       <r>     9.9564     2.5583    15.2967 </r>
       <r>    10.0355     0.8737    15.3658 </r>
       <r>    10.1145     1.8969    15.5159 </r>
       <r>    10.1936     2.7055    15.7298 </r>
       <r>    10.2727     1.6649    15.8615 </r>
       <r>    10.3518     2.4719    16.0570 </r>
       <r>    10.4309     2.2315    16.2335 </r>
       <r>    10.5100     0.9564    16.3091 </r>
       <r>    10.5891     0.7406    16.3677 </r>
       <r>    10.6682     1.4439    16.4819 </r>
       <r>    10.7472     1.5569    16.6050 </r>
       <r>    10.8263     1.8845    16.7541 </r>
       <r>    10.9054     0.7238    16.8113 </r>
       <r>    10.9845     1.5853    16.9367 </r>
       <r>    11.0636     2.1204    17.1044 </r>
       <r>    11.1427     3.3865    17.3722 </r>
       <r>    11.2218     3.3580    17.6378 </r>
       <r>    11.3009     2.0157    17.7972 </r>
       <r>    11.3799     1.8105    17.9404 </r>
       <r>    11.4590     1.6715    18.0726 </r>
       <r>    11.5381     1.7620    18.2119 </r>
       <r>    11.6172     1.7529    18.3506 </r>
       <r>    11.6963     0.9039    18.4221 </r>
       <r>    11.7754     1.5604    18.5455 </r>
       <r>    11.8545     2.2215    18.7212 </r>
       <r>    11.9335     1.3159    18.8252 </r>
       <r>    12.0126     2.1729    18.9971 </r>
       <r>    12.0917     3.3263    19.2601 </r>
       <r>    12.1708     2.9402    19.4927 </r>
       <r>    12.2499     1.4303    19.6058 </r>
       <r>    12.3290     2.5877    19.8104 </r>
       <r>    12.4081     2.0341    19.9713 </r>
       <r>    12.4872     1.7816    20.1122 </r>
       <r>    12.5662     0.8484    20.1793 </r>
       <r>    12.6453     0.6473    20.2305 </r>
       <r>    12.7244     2.5260    20.4303 </r>
       <r>    12.8035     2.5706    20.6336 </r>
       <r>    12.8826     1.6428    20.7635 </r>
       <r>    12.9617     2.4404    20.9565 </r>
       <r>    13.0408     1.7652    21.0961 </r>
       <r>    13.1199     1.7410    21.2338 </r>
       <r>    13.1989     2.8868    21.4621 </r>
       <r>    13.2780     1.5343    21.5835 </r>
       <r>    13.3571     1.8673    21.7311 </r>
       <r>    13.4362     2.1330    21.8998 </r>
       <r>    13.5153     1.3919    22.0099 </r>
       <r>    13.5944     0.8443    22.0767 </r>
       <r>    13.6735     1.8213    22.2207 </r>
       <r>    13.7525     1.1983    22.3155 </r>
       <r>    13.8316     0.6777    22.3691 </r>
       <r>    13.9107     1.6191    22.4971 </r>
       <r>    13.9898     0.8584    22.5650 </r>
       <r>    14.0689     0.5694    22.6101 </r>
       <r>    14.1480     0.3390    22.6369 </r>
       <r>    14.2271     0.7469    22.6959 </r>
       <r>    14.3062     1.7851    22.8371 </r>
       <r>    14.3852     0.8573    22.9049 </r>
       <r>    14.4643     0.3733    22.9345 </r>
       <r>    14.5434     1.2551    23.0337 </r>
       <r>    14.6225     0.6880    23.0881 </r>
       <r>    14.7016     0.3520    23.1160 </r>
       <r>    14.7807     0.6278    23.1656 </r>
       <r>    14.8598     0.1162    23.1748 </r>
       <r>    14.9389     0.2906    23.1978 </r>
       <r>    15.0179     0.6648    23.2504 </r>
       <r>    15.0970     0.6127    23.2988 </r>
       <r>    15.1761     0.1468    23.3104 </r>
       <r>    15.2552     0.9542    23.3859 </r>
       <r>    15.3343     0.3494    23.4135 </r>
       <r>    15.4134     0.7216    23.4706 </r>
       <r>    15.4925     0.4770    23.5083 </r>
       <r>    15.5716     0.4166    23.5413 </r>
       <r>    15.6506     0.0255    23.5433 </r>
       <r>    15.7297    -0.0177    23.5419 </r>
       <r>    15.8088     0.5593    23.5861 </r>
       <r>    15.8879     0.1280    23.5962 </r>
       <r>    15.9670     0.8471    23.6632 </r>
       <r>    16.0461     0.7573    23.7231 </r>
       <r>    16.1252     0.0065    23.7236 </r>
       <r>    16.2042    -0.0016    23.7235 </r>
       <r>    16.2833    -0.0041    23.7232 </r>
       <r>    16.3624     0.0939    23.7306 </r>
       <r>    16.4415     0.2460    23.7501 </r>
       <r>    16.5206     0.6644    23.8026 </r>
       <r>    16.5997     0.2324    23.8210 </r>
       <r>    16.6788     0.2076    23.8374 </r>
       <r>    16.7579     0.0841    23.8441 </r>
       <r>    16.8369    -0.0042    23.8437 </r>
       <r>    16.9160    -0.0074    23.8431 </r>
       <r>    16.9951     0.1695    23.8565 </r>
       <r>    17.0742     0.4554    23.8926 </r>
       <r>    17.1533     0.2472    23.9121 </r>
       <r>    17.2324     0.0495    23.9160 </r>
       <r>    17.3115    -0.0022    23.9159 </r>
       <r>    17.3906    -0.0000    23.9159 </r>
       <r>    17.4696    -0.0000    23.9159 </r>
       <r>    17.5487    -0.0003    23.9158 </r>
       <r>    17.6278    -0.0049    23.9154 </r>
       <r>    17.7069     0.2931    23.9386 </r>
       <r>    17.7860     0.1669    23.9518 </r>
       <r>    17.8651     0.0015    23.9519 </r>
       <r>    17.9442    -0.0003    23.9519 </r>
       <r>    18.0232    -0.0000    23.9519 </r>
       <r>    18.1023    -0.0000    23.9519 </r>
       <r>    18.1814    -0.0076    23.9513 </r>
       <r>    18.2605     0.1656    23.9644 </r>
       <r>    18.3396     0.1469    23.9760 </r>
       <r>    18.4187     0.1349    23.9867 </r>
       <r>    18.4978     0.1735    24.0004 </r>
       <r>    18.5769    -0.0051    24.0000 </r>
       <r>    18.6559    -0.0001    24.0000 </r>
       <r>    18.7350    -0.0000    24.0000 </r>
       <r>    18.8141    -0.0000    24.0000 </r>
       <r>    18.8932     0.0000    24.0000 </r>
       <r>    18.9723     0.0000    24.0000 </r>
       <r>    19.0514     0.0000    24.0000 </r>
       <r>    19.1305     0.0000    24.0000 </r>
       <r>    19.2096     0.0000    24.0000 </r>
       <r>    19.2886     0.0000    24.0000 </r>
       <r>    19.3677     0.0000    24.0000 </r>
       <r>    19.4468     0.0000    24.0000 </r>
       <r>    19.5259     0.0000    24.0000 </r>
      </set>
     </set>
    </array>
   </total>
  </dos>
 </calculation>
 <structure name="finalpos" >
  <crystal>
   <varray name="basis" >
    <v>       4.02309700       0.00000000       0.00000000 </v>
    <v>       0.00000000       4.04336400       0.00000000 </v>
    <v>       0.00000000       0.00000000       4.04336400 </v>
   </varray>
   <i name="volume">     65.77277780 </i>
   <varray name="rec_basis" >
    <v>       0.24856473       0.00000000       0.00000000 </v>
    <v>       0.00000000       0.24731882       0.00000000 </v>
    <v>       0.00000000       0.00000000       0.24731882 </v>
   </varray>
  </crystal>
  <varray name="positions" >
   <v>       0.00000000       0.00000000       0.00000000 </v>
   <v>       0.00000000       0.50000000       0.50000000 </v>
   <v>       0.50000000       0.00000000       0.50000000 </v>
   <v>       0.50000000       0.50000000       0.00000000 </v>
  </varray>
 </structure>
</modeling>
