<?xml version="1.0" encoding="ISO-8859-1"?>
<modeling>
 <generator>
  <i name="program" type="string">vasp </i>
  <i name="version" type="string">5.4.4.18Apr17-6-g9f103f2a35  </i>
  <i name="subversion" type="string">(build Jun 11 2017 21:30:58) complex            parallel </i>
  <i name="platform" type="string">LinuxIFC </i>
  <i name="date" type="string">2022 07 07 </i>
  <i name="time" type="string">18:38:44 </i>
 </generator>
 <incar>
  <i type="string" name="PREC">accurate</i>
  <i type="string" name="ALGO"> Normal</i>
  <i type="logical" name="ADDGRID"> T  </i>
  <i type="int" name="NELM">   100</i>
  <i type="int" name="NELMIN">     4</i>
  <i type="int" name="IBRION">    -1</i>
  <i name="EDIFF">      0.00005000</i>
  <i name="ENCUT">    520.00000000</i>
  <i type="logical" name="LREAL"> F  </i>
  <i type="int" name="ISMEAR">     1</i>
  <i name="SIGMA">      0.05000000</i>
  <i type="logical" name="LWAVE"> F  </i>
  <i type="logical" name="LCHARG"> F  </i>
  <i type="logical" name="LASPH"> T  </i>
  <v type="int" name="KPOINT_BSE">    -1     0     0     0</v>
  <i type="int" name="NELM">   100</i>
  <i type="logical" name="LASPH"> T  </i>
 </incar>
 <structure name="primitive_cell" >
  <crystal>
   <varray name="basis" >
    <v>       0.00000000       2.04179900       2.02168200 </v>
    <v>       0.00000000       2.04179900      -2.02168200 </v>
    <v>      -2.02168200      -2.04179900       0.00000000 </v>
   </varray>
   <i name="volume">     16.69047402 </i>
   <varray name="rec_basis" >
    <v>      -0.24731882       0.24488209       0.24731882 </v>
    <v>      -0.24731882       0.24488209      -0.24731882 </v>
    <v>      -0.49463763       0.00000000       0.00000000 </v>
   </varray>
  </crystal>
  <varray name="positions" >
   <v>       0.00000000       0.00000000       0.00000000 </v>
  </varray>
 </structure>
 <varray name="primitive_index" >
  <v type="int" >        1 </v>
 </varray>
 <kpoints>
  <generation param="Gamma">
   <v type="int" name="divisions">      11       11       11 </v>
   <v name="usershift">      0.00000000       0.00000000       0.00000000 </v>
   <v name="genvec1">      0.09090909       0.00000000       0.00000000 </v>
   <v name="genvec2">      0.00000000       0.09090909       0.00000000 </v>
   <v name="genvec3">      0.00000000       0.00000000       0.09090909 </v>
   <v name="shift">      0.00000000       0.00000000       0.00000000 </v>
  </generation>
  <varray name="kpointlist" >
   <v>       0.00000000       0.00000000       0.00000000 </v>
   <v>       0.09090909       0.00000000       0.00000000 </v>
   <v>       0.18181818       0.00000000       0.00000000 </v>
   <v>       0.27272727       0.00000000       0.00000000 </v>
   <v>       0.36363636       0.00000000       0.00000000 </v>
   <v>       0.45454545       0.00000000       0.00000000 </v>
   <v>       0.00000000       0.09090909       0.00000000 </v>
   <v>       0.09090909       0.09090909       0.00000000 </v>
   <v>       0.18181818       0.09090909       0.00000000 </v>
   <v>       0.27272727       0.09090909       0.00000000 </v>
   <v>       0.36363636       0.09090909       0.00000000 </v>
   <v>       0.45454545       0.09090909       0.00000000 </v>
   <v>       0.00000000       0.18181818       0.00000000 </v>
   <v>       0.09090909       0.18181818       0.00000000 </v>
   <v>       0.18181818       0.18181818       0.00000000 </v>
   <v>       0.27272727       0.18181818       0.00000000 </v>
   <v>       0.36363636       0.18181818       0.00000000 </v>
   <v>       0.45454545       0.18181818       0.00000000 </v>
   <v>       0.00000000       0.27272727       0.00000000 </v>
   <v>       0.09090909       0.27272727       0.00000000 </v>
   <v>       0.18181818       0.27272727       0.00000000 </v>
   <v>       0.27272727       0.27272727       0.00000000 </v>
   <v>       0.36363636       0.27272727       0.00000000 </v>
   <v>       0.45454545       0.27272727       0.00000000 </v>
   <v>       0.00000000       0.36363636       0.00000000 </v>
   <v>       0.09090909       0.36363636       0.00000000 </v>
   <v>       0.18181818       0.36363636       0.00000000 </v>
   <v>       0.27272727       0.36363636       0.00000000 </v>
   <v>       0.36363636       0.36363636       0.00000000 </v>
   <v>       0.45454545       0.36363636       0.00000000 </v>
   <v>       0.00000000       0.45454545       0.00000000 </v>
   <v>       0.09090909       0.45454545       0.00000000 </v>
   <v>       0.18181818       0.45454545       0.00000000 </v>
   <v>       0.27272727       0.45454545       0.00000000 </v>
   <v>       0.36363636       0.45454545       0.00000000 </v>
   <v>       0.45454545       0.45454545       0.00000000 </v>
   <v>       0.09090909       0.00000000       0.09090909 </v>
   <v>       0.18181818       0.00000000       0.09090909 </v>
   <v>       0.27272727       0.00000000       0.09090909 </v>
   <v>       0.36363636       0.00000000       0.09090909 </v>
   <v>       0.45454545       0.00000000       0.09090909 </v>
   <v>       0.09090909       0.09090909       0.09090909 </v>
   <v>       0.18181818       0.09090909       0.09090909 </v>
   <v>       0.27272727       0.09090909       0.09090909 </v>
   <v>       0.36363636       0.09090909       0.09090909 </v>
   <v>       0.45454545       0.09090909       0.09090909 </v>
   <v>       0.09090909       0.18181818       0.09090909 </v>
   <v>       0.18181818       0.18181818       0.09090909 </v>
   <v>       0.27272727       0.18181818       0.09090909 </v>
   <v>       0.36363636       0.18181818       0.09090909 </v>
   <v>       0.45454545       0.18181818       0.09090909 </v>
   <v>       0.09090909       0.27272727       0.09090909 </v>
   <v>       0.18181818       0.27272727       0.09090909 </v>
   <v>       0.27272727       0.27272727       0.09090909 </v>
   <v>       0.36363636       0.27272727       0.09090909 </v>
   <v>       0.45454545       0.27272727       0.09090909 </v>
   <v>       0.09090909       0.36363636       0.09090909 </v>
   <v>       0.18181818       0.36363636       0.09090909 </v>
   <v>       0.27272727       0.36363636       0.09090909 </v>
   <v>       0.36363636       0.36363636       0.09090909 </v>
   <v>       0.45454545       0.36363636       0.09090909 </v>
   <v>       0.09090909       0.45454545       0.09090909 </v>
   <v>       0.18181818       0.45454545       0.09090909 </v>
   <v>       0.27272727       0.45454545       0.09090909 </v>
   <v>       0.36363636       0.45454545       0.09090909 </v>
   <v>       0.45454545       0.45454545       0.09090909 </v>
   <v>       0.18181818       0.00000000       0.18181818 </v>
   <v>       0.27272727       0.00000000       0.18181818 </v>
   <v>       0.36363636       0.00000000       0.18181818 </v>
   <v>       0.45454545       0.00000000       0.18181818 </v>
   <v>       0.18181818       0.09090909       0.18181818 </v>
   <v>       0.27272727       0.09090909       0.18181818 </v>
   <v>       0.36363636       0.09090909       0.18181818 </v>
   <v>       0.45454545       0.09090909       0.18181818 </v>
   <v>       0.18181818       0.18181818       0.18181818 </v>
   <v>       0.27272727       0.18181818       0.18181818 </v>
   <v>       0.36363636       0.18181818       0.18181818 </v>
   <v>       0.45454545       0.18181818       0.18181818 </v>
   <v>       0.18181818       0.27272727       0.18181818 </v>
   <v>       0.27272727       0.27272727       0.18181818 </v>
   <v>       0.36363636       0.27272727       0.18181818 </v>
   <v>       0.45454545       0.27272727       0.18181818 </v>
   <v>       0.18181818       0.36363636       0.18181818 </v>
   <v>       0.27272727       0.36363636       0.18181818 </v>
   <v>       0.36363636       0.36363636       0.18181818 </v>
   <v>       0.45454545       0.36363636       0.18181818 </v>
   <v>       0.18181818       0.45454545       0.18181818 </v>
   <v>       0.27272727       0.45454545       0.18181818 </v>
   <v>       0.36363636       0.45454545       0.18181818 </v>
   <v>       0.45454545       0.45454545       0.18181818 </v>
   <v>       0.27272727       0.00000000       0.27272727 </v>
   <v>       0.36363636       0.00000000       0.27272727 </v>
   <v>       0.45454545       0.00000000       0.27272727 </v>
   <v>       0.27272727       0.09090909       0.27272727 </v>
   <v>       0.36363636       0.09090909       0.27272727 </v>
   <v>       0.45454545       0.09090909       0.27272727 </v>
   <v>       0.27272727       0.18181818       0.27272727 </v>
   <v>       0.36363636       0.18181818       0.27272727 </v>
   <v>       0.45454545       0.18181818       0.27272727 </v>
   <v>       0.27272727       0.27272727       0.27272727 </v>
   <v>       0.36363636       0.27272727       0.27272727 </v>
   <v>       0.45454545       0.27272727       0.27272727 </v>
   <v>       0.27272727       0.36363636       0.27272727 </v>
   <v>       0.36363636       0.36363636       0.27272727 </v>
   <v>       0.45454545       0.36363636       0.27272727 </v>
   <v>       0.27272727       0.45454545       0.27272727 </v>
   <v>       0.36363636       0.45454545       0.27272727 </v>
   <v>       0.45454545       0.45454545       0.27272727 </v>
   <v>       0.36363636       0.00000000       0.36363636 </v>
   <v>       0.45454545       0.00000000       0.36363636 </v>
   <v>       0.36363636       0.09090909       0.36363636 </v>
   <v>       0.45454545       0.09090909       0.36363636 </v>
   <v>       0.36363636       0.18181818       0.36363636 </v>
   <v>       0.45454545       0.18181818       0.36363636 </v>
   <v>       0.36363636       0.27272727       0.36363636 </v>
   <v>       0.45454545       0.27272727       0.36363636 </v>
   <v>       0.36363636       0.36363636       0.36363636 </v>
   <v>       0.45454545       0.36363636       0.36363636 </v>
   <v>       0.36363636       0.45454545       0.36363636 </v>
   <v>       0.45454545       0.45454545       0.36363636 </v>
   <v>       0.45454545       0.00000000       0.45454545 </v>
   <v>       0.45454545       0.09090909       0.45454545 </v>
   <v>       0.45454545       0.18181818       0.45454545 </v>
   <v>       0.45454545       0.27272727       0.45454545 </v>
   <v>       0.45454545       0.36363636       0.45454545 </v>
   <v>       0.45454545       0.45454545       0.45454545 </v>
  </varray>
  <varray name="weights" >
   <v>       0.00075131 </v>
   <v>       0.00300526 </v>
   <v>       0.00300526 </v>
   <v>       0.00300526 </v>
   <v>       0.00300526 </v>
   <v>       0.00300526 </v>
   <v>       0.00150263 </v>
   <v>       0.00601052 </v>
   <v>       0.00601052 </v>
   <v>       0.00601052 </v>
   <v>       0.00601052 </v>
   <v>       0.00601052 </v>
   <v>       0.00150263 </v>
   <v>       0.00601052 </v>
   <v>       0.00601052 </v>
   <v>       0.00601052 </v>
   <v>       0.00601052 </v>
   <v>       0.00601052 </v>
   <v>       0.00150263 </v>
   <v>       0.00601052 </v>
   <v>       0.00601052 </v>
   <v>       0.00601052 </v>
   <v>       0.00601052 </v>
   <v>       0.00601052 </v>
   <v>       0.00150263 </v>
   <v>       0.00601052 </v>
   <v>       0.00601052 </v>
   <v>       0.00601052 </v>
   <v>       0.00601052 </v>
   <v>       0.00601052 </v>
   <v>       0.00150263 </v>
   <v>       0.00601052 </v>
   <v>       0.00601052 </v>
   <v>       0.00601052 </v>
   <v>       0.00601052 </v>
   <v>       0.00601052 </v>
   <v>       0.00300526 </v>
   <v>       0.00601052 </v>
   <v>       0.00601052 </v>
   <v>       0.00601052 </v>
   <v>       0.00601052 </v>
   <v>       0.00601052 </v>
   <v>       0.01202104 </v>
   <v>       0.01202104 </v>
   <v>       0.01202104 </v>
   <v>       0.01202104 </v>
   <v>       0.00601052 </v>
   <v>       0.01202104 </v>
   <v>       0.01202104 </v>
   <v>       0.01202104 </v>
   <v>       0.01202104 </v>
   <v>       0.00601052 </v>
   <v>       0.01202104 </v>
   <v>       0.01202104 </v>
   <v>       0.01202104 </v>
   <v>       0.01202104 </v>
   <v>       0.00601052 </v>
   <v>       0.01202104 </v>
   <v>       0.01202104 </v>
   <v>       0.01202104 </v>
   <v>       0.01202104 </v>
   <v>       0.00601052 </v>
   <v>       0.01202104 </v>
   <v>       0.01202104 </v>
   <v>       0.01202104 </v>
   <v>       0.01202104 </v>
   <v>       0.00300526 </v>
   <v>       0.00601052 </v>
   <v>       0.00601052 </v>
   <v>       0.00601052 </v>
   <v>       0.00601052 </v>
   <v>       0.01202104 </v>
   <v>       0.01202104 </v>
   <v>       0.01202104 </v>
   <v>       0.00601052 </v>
   <v>       0.01202104 </v>
   <v>       0.01202104 </v>
   <v>       0.01202104 </v>
   <v>       0.00601052 </v>
   <v>       0.01202104 </v>
   <v>       0.01202104 </v>
   <v>       0.01202104 </v>
   <v>       0.00601052 </v>
   <v>       0.01202104 </v>
   <v>       0.01202104 </v>
   <v>       0.01202104 </v>
   <v>       0.00601052 </v>
   <v>       0.01202104 </v>
   <v>       0.01202104 </v>
   <v>       0.01202104 </v>
   <v>       0.00300526 </v>
   <v>       0.00601052 </v>
   <v>       0.00601052 </v>
   <v>       0.00601052 </v>
   <v>       0.01202104 </v>
   <v>       0.01202104 </v>
   <v>       0.00601052 </v>
   <v>       0.01202104 </v>
   <v>       0.01202104 </v>
   <v>       0.00601052 </v>
   <v>       0.01202104 </v>
   <v>       0.01202104 </v>
   <v>       0.00601052 </v>
   <v>       0.01202104 </v>
   <v>       0.01202104 </v>
   <v>       0.00601052 </v>
   <v>       0.01202104 </v>
   <v>       0.01202104 </v>
   <v>       0.00300526 </v>
   <v>       0.00601052 </v>
   <v>       0.00601052 </v>
   <v>       0.01202104 </v>
   <v>       0.00601052 </v>
   <v>       0.01202104 </v>
   <v>       0.00601052 </v>
   <v>       0.01202104 </v>
   <v>       0.00601052 </v>
   <v>       0.01202104 </v>
   <v>       0.00601052 </v>
   <v>       0.01202104 </v>
   <v>       0.00300526 </v>
   <v>       0.00601052 </v>
   <v>       0.00601052 </v>
   <v>       0.00601052 </v>
   <v>       0.00601052 </v>
   <v>       0.00601052 </v>
  </varray>
 </kpoints>
 <parameters>
  <separator name="general" >
   <i type="string" name="SYSTEM">unknown system</i>
   <i type="logical" name="LCOMPAT"> F  </i>
  </separator>
  <separator name="electronic" >
   <i type="string" name="PREC">accura</i>
   <i name="ENMAX">    520.00000000</i>
   <i name="ENAUG">    291.05200000</i>
   <i name="EDIFF">      0.00005000</i>
   <i type="int" name="IALGO">    38</i>
   <i type="int" name="IWAVPR">    10</i>
   <i type="int" name="NBANDS">    12</i>
   <i name="NELECT">     12.00000000</i>
   <i type="int" name="TURBO">     0</i>
   <i type="int" name="IRESTART">     0</i>
   <i type="int" name="NREBOOT">     0</i>
   <i type="int" name="NMIN">     0</i>
   <i name="EREF">      0.00000000</i>
   <separator name="electronic smearing" >
    <i type="int" name="ISMEAR">     1</i>
    <i name="SIGMA">      0.05000000</i>
    <i name="KSPACING">      0.50000000</i>
    <i type="logical" name="KGAMMA"> T  </i>
   </separator>
   <separator name="electronic projectors" >
    <i type="logical" name="LREAL"> F  </i>
    <v name="ROPT">      0.00000000</v>
    <i type="int" name="LMAXPAW">  -100</i>
    <i type="int" name="LMAXMIX">     2</i>
    <i type="logical" name="NLSPLINE"> F  </i>
   </separator>
   <separator name="electronic startup" >
    <i type="int" name="ISTART">     0</i>
    <i type="int" name="ICHARG">     2</i>
    <i type="int" name="INIWAV">     1</i>
   </separator>
   <separator name="electronic spin" >
    <i type="int" name="ISPIN">     1</i>
    <i type="logical" name="LNONCOLLINEAR"> F  </i>
    <v name="MAGMOM">      1.00000000      1.00000000      1.00000000      1.00000000</v>
    <i name="NUPDOWN">     -1.00000000</i>
    <i type="logical" name="LSORBIT"> F  </i>
    <v name="SAXIS">      0.00000000      0.00000000      1.00000000</v>
    <i type="logical" name="LSPIRAL"> F  </i>
    <v name="QSPIRAL">      0.00000000      0.00000000      0.00000000</v>
    <i type="logical" name="LZEROZ"> F  </i>
   </separator>
   <separator name="electronic exchange-correlation" >
    <i type="logical" name="LASPH"> T  </i>
    <i type="logical" name="LMETAGGA"> F  </i>
   </separator>
   <separator name="electronic convergence" >
    <i type="int" name="NELM">   100</i>
    <i type="int" name="NELMDL">    -5</i>
    <i type="int" name="NELMIN">     4</i>
    <i name="ENINI">    520.00000000</i>
    <separator name="electronic convergence detail" >
     <i type="logical" name="LDIAG"> T  </i>
     <i type="logical" name="LSUBROT"> F  </i>
     <i name="WEIMIN">      0.00000000</i>
     <i name="EBREAK">      0.00000104</i>
     <i name="DEPER">      0.30000000</i>
     <i type="int" name="NRMM">     4</i>
     <i name="TIME">      0.40000000</i>
    </separator>
   </separator>
   <separator name="electronic mixer" >
    <i name="AMIX">      0.40000000</i>
    <i name="BMIX">      1.00000000</i>
    <i name="AMIN">      0.10000000</i>
    <i name="AMIX_MAG">      1.60000000</i>
    <i name="BMIX_MAG">      1.00000000</i>
    <separator name="electronic mixer details" >
     <i type="int" name="IMIX">     4</i>
     <i type="logical" name="MIXFIRST"> F  </i>
     <i type="int" name="MAXMIX">   -45</i>
     <i name="WC">    100.00000000</i>
     <i type="int" name="INIMIX">     1</i>
     <i type="int" name="MIXPRE">     1</i>
     <i type="int" name="MREMOVE">     5</i>
    </separator>
   </separator>
   <separator name="electronic dipolcorrection" >
    <i type="logical" name="LDIPOL"> F  </i>
    <i type="logical" name="LMONO"> F  </i>
    <i type="int" name="IDIPOL">     0</i>
    <i name="EPSILON">      1.00000000</i>
    <v name="DIPOL">   -100.00000000   -100.00000000   -100.00000000</v>
    <i name="EFIELD">      0.00000000</i>
   </separator>
  </separator>
  <separator name="grids" >
   <i type="int" name="NGX">    30</i>
   <i type="int" name="NGY">    30</i>
   <i type="int" name="NGZ">    30</i>
   <i type="int" name="NGXF">    60</i>
   <i type="int" name="NGYF">    60</i>
   <i type="int" name="NGZF">    60</i>
   <i type="logical" name="ADDGRID"> T  </i>
  </separator>
  <separator name="ionic" >
   <i type="int" name="NSW">     0</i>
   <i type="int" name="IBRION">    -1</i>
   <i type="int" name="MDALGO">     0</i>
   <i type="int" name="ISIF">     2</i>
   <i name="PSTRESS">      0.00000000</i>
   <i name="EDIFFG">      0.00050000</i>
   <i type="int" name="NFREE">     0</i>
   <i name="POTIM">      0.50000000</i>
   <i name="SMASS">     -3.00000000</i>
   <i name="SCALEE">      1.00000000</i>
  </separator>
  <separator name="ionic md" >
   <i name="TEBEG">      0.00010000</i>
   <i name="TEEND">      0.00010000</i>
   <i type="int" name="NBLOCK">     1</i>
   <i type="int" name="KBLOCK">     1</i>
   <i type="int" name="NPACO">   256</i>
   <i name="APACO">     16.00000000</i>
  </separator>
  <separator name="symmetry" >
   <i type="int" name="ISYM">     2</i>
   <i name="SYMPREC">      0.00001000</i>
  </separator>
  <separator name="dos" >
   <i type="int" name="LORBIT">     0</i>
   <v name="RWIGS">     -1.00000000</v>
   <i type="int" name="NEDOS">   301</i>
   <i name="EMIN">     10.00000000</i>
   <i name="EMAX">    -10.00000000</i>
   <i name="EFERMI">      0.00000000</i>
  </separator>
  <separator name="writing" >
   <i type="int" name="NWRITE">     2</i>
   <i type="logical" name="LWAVE"> F  </i>
   <i type="logical" name="LDOWNSAMPLE"> F  </i>
   <i type="logical" name="LCHARG"> F  </i>
   <i type="logical" name="LPARD"> F  </i>
   <i type="logical" name="LVTOT"> F  </i>
   <i type="logical" name="LVHAR"> F  </i>
   <i type="logical" name="LELF"> F  </i>
   <i type="logical" name="LOPTICS"> F  </i>
   <v name="STM">      0.00000000      0.00000000      0.00000000      0.00000000      0.00000000      0.00000000      0.00000000</v>
  </separator>
  <separator name="performance" >
   <i type="int" name="NPAR">     4</i>
   <i type="int" name="NSIM">     4</i>
   <i type="int" name="NBLK">    -1</i>
   <i type="logical" name="LPLANE"> T  </i>
   <i type="logical" name="LSCALAPACK"> T  </i>
   <i type="logical" name="LSCAAWARE"> F  </i>
   <i type="logical" name="LSCALU"> F  </i>
   <i type="logical" name="LASYNC"> F  </i>
   <i type="logical" name="LORBITALREAL"> F  </i>
  </separator>
  <separator name="miscellaneous" >
   <i type="int" name="IDIOT">     3</i>
   <i type="int" name="ISPECIAL">     0</i>
   <i type="logical" name="LMUSIC"> F  </i>
   <v name="POMASS">     26.98100000</v>
   <v name="DARWINR">      0.00000000</v>
   <v name="DARWINV">      1.00000000</v>
   <i type="logical" name="LCORR"> T  </i>
  </separator>
  <i type="logical" name="GGA_COMPAT"> T  </i>
  <i type="logical" name="LBERRY"> F  </i>
  <i type="int" name="ICORELEVEL">     0</i>
  <i type="logical" name="LDAU"> F  </i>
  <i type="int" name="I_CONSTRAINED_M">     0</i>
  <separator name="electronic exchange-correlation" >
   <i type="string" name="GGA">--</i>
   <i type="int" name="VOSKOWN">     0</i>
   <i type="logical" name="LHFCALC"> F  </i>
   <i type="string" name="PRECFOCK"></i>
   <i type="logical" name="LSYMGRAD"> F  </i>
   <i type="logical" name="LHFONE"> F  </i>
   <i type="logical" name="LRHFCALC"> F  </i>
   <i type="logical" name="LTHOMAS"> F  </i>
   <i type="logical" name="LMODELHF"> F  </i>
   <i name="ENCUT4O">     -1.00000000</i>
   <i type="int" name="EXXOEP">     0</i>
   <i type="int" name="FOURORBIT">     0</i>
   <i name="AEXX">      0.00000000</i>
   <i name="HFALPHA">      0.00000000</i>
   <i name="MCALPHA">      0.00000000</i>
   <i name="ALDAX">      1.00000000</i>
   <i name="AGGAX">      1.00000000</i>
   <i name="ALDAC">      1.00000000</i>
   <i name="AGGAC">      1.00000000</i>
   <i type="int" name="NKREDX">     1</i>
   <i type="int" name="NKREDY">     1</i>
   <i type="int" name="NKREDZ">     1</i>
   <i type="logical" name="SHIFTRED"> F  </i>
   <i type="logical" name="ODDONLY"> F  </i>
   <i type="logical" name="EVENONLY"> F  </i>
   <i type="int" name="LMAXFOCK">     0</i>
   <i type="int" name="NMAXFOCKAE">     0</i>
   <i type="logical" name="LFOCKAEDFT"> F  </i>
   <i name="HFSCREEN">      0.00000000</i>
   <i name="HFSCREENC">      0.00000000</i>
   <i type="int" name="NBANDSGWLOW">     0</i>
  </separator>
  <separator name="vdW DFT" >
   <i type="logical" name="LUSE_VDW"> F  </i>
   <i name="Zab_VDW">     -0.84910000</i>
   <i name="PARAM1">      0.12340000</i>
   <i name="PARAM2">      1.00000000</i>
   <i name="PARAM3">      0.00000000</i>
  </separator>
  <separator name="model GW" >
   <i type="int" name="MODEL_GW">     0</i>
   <i name="MODEL_EPS0">     10.01428441</i>
   <i name="MODEL_ALPHA">      1.00000000</i>
  </separator>
  <separator name="linear response parameters" >
   <i type="logical" name="LEPSILON"> F  </i>
   <i type="logical" name="LRPA"> F  </i>
   <i type="logical" name="LNABLA"> F  </i>
   <i type="logical" name="LVEL"> F  </i>
   <i type="int" name="KINTER">     0</i>
   <i name="CSHIFT">      0.10000000</i>
   <i name="OMEGAMAX">     -1.00000000</i>
   <i name="DEG_THRESHOLD">      0.00200000</i>
   <i name="RTIME">     -0.10000000</i>
   <i name="WPLASMAI">      0.00000000</i>
   <v name="DFIELD">      0.00000000      0.00000000      0.00000000</v>
   <v name="WPLASMA">      0.00000000      0.00000000      0.00000000      0.00000000      0.00000000      0.00000000      0.00000000      0.00000000      0.00000000</v>
  </separator>
  <separator name="orbital magnetization" >
   <i type="logical" name="NUCIND"> F  </i>
   <v name="MAGPOS">      0.00000000      0.00000000      0.00000000</v>
   <i type="logical" name="LNICSALL"> T  </i>
   <i type="logical" name="ORBITALMAG"> F  </i>
   <i type="logical" name="LMAGBLOCH"> F  </i>
   <i type="logical" name="LCHIMAG"> F  </i>
   <i type="logical" name="LGAUGE"> T  </i>
   <i type="int" name="MAGATOM">     0</i>
   <v name="MAGDIPOL">      0.00000000      0.00000000      0.00000000</v>
   <v name="AVECCONST">      0.00000000      0.00000000      0.00000000</v>
  </separator>
  <separator name="response functions" >
   <i type="logical" name="LADDER"> F  </i>
   <i type="logical" name="LRPAFORCE"> F  </i>
   <i type="logical" name="LFXC"> F  </i>
   <i type="logical" name="LHARTREE"> T  </i>
   <i type="int" name="IBSE">     0</i>
   <v type="int" name="KPOINT">    -1     0     0     0</v>
   <i type="logical" name="LTCTE"> F  </i>
   <i type="logical" name="LTETE"> F  </i>
   <i type="logical" name="LTRIPLET"> F  </i>
   <i type="logical" name="LFXCEPS"> F  </i>
   <i type="logical" name="LFXHEG"> F  </i>
   <i type="int" name="NATURALO">     2</i>
   <i type="logical" name="L2ORDER"> F  </i>
   <i type="logical" name="LMP2LT"> F  </i>
   <i type="logical" name="LUSEW"> F  </i>
   <i name="ENCUTGW">     -2.00000000</i>
   <i name="ENCUTGWSOFT">     -2.00000000</i>
   <i name="ENCUTLF">     -1.00000000</i>
   <i type="int" name="LMAXMP2">    -1</i>
   <i name="SCISSOR">      0.00000000</i>
   <i type="int" name="NOMEGA">     0</i>
   <i type="int" name="NOMEGAR">     0</i>
   <i type="int" name="NBANDSGW">    -1</i>
   <i type="int" name="NBANDSO">    -1</i>
   <i type="int" name="NBANDSV">    -1</i>
   <i type="int" name="NELM">   100</i>
   <i type="int" name="NELMHF">     1</i>
   <i type="int" name="DIM">     3</i>
   <i type="int" name="ANTIRES">     0</i>
   <i name="OMEGAMAX">    -30.00000000</i>
   <i name="OMEGAMIN">    -30.00000000</i>
   <i name="OMEGATL">   -200.00000000</i>
   <i type="int" name="OMEGAGRID">   140</i>
   <i name="CSHIFT">     -0.10000000</i>
   <i type="logical" name="SELFENERGY"> F  </i>
   <i type="logical" name="LSPECTRAL"> F  </i>
   <i type="logical" name="LSPECTRALGW"> F  </i>
   <i type="logical" name="LSINGLES"> F  </i>
   <i type="logical" name="LFERMIGW"> F  </i>
   <i type="logical" name="ODDONLYGW"> F  </i>
   <i type="logical" name="EVENONLYGW"> F  </i>
   <i type="int" name="NKREDLFX">     1</i>
   <i type="int" name="NKREDLFY">     1</i>
   <i type="int" name="NKREDLFZ">     1</i>
   <i type="int" name="MAXMEM">  2800</i>
   <i type="int" name="TELESCOPE">     0</i>
   <i type="int" name="TAUPAR">     1</i>
   <i type="int" name="OMEGAPAR">    -1</i>
   <i name="LAMBDA">      1.00000000</i>
  </separator>
  <separator name="External order field" >
   <i name="OFIELD_KAPPA">      0.00000000</i>
   <v name="OFIELD_K">      0.00000000      0.00000000      0.00000000</v>
   <i name="OFIELD_Q6_NEAR">      0.00000000</i>
   <i name="OFIELD_Q6_FAR">      0.00000000</i>
   <i name="OFIELD_A">      0.00000000</i>
  </separator>
 </parameters>
 <atominfo>
  <atoms>       4 </atoms>
  <types>       1 </types>
  <array name="atoms" >
   <dimension dim="1">ion</dimension>
   <field type="string">element</field>
   <field type="int">atomtype</field>
   <set>
    <rc><c>Al</c><c>   1</c></rc>
    <rc><c>Al</c><c>   1</c></rc>
    <rc><c>Al</c><c>   1</c></rc>
    <rc><c>Al</c><c>   1</c></rc>
   </set>
  </array>
  <array name="atomtypes" >
   <dimension dim="1">type</dimension>
   <field type="int">atomspertype</field>
   <field type="string">element</field>
   <field>mass</field>
   <field>valence</field>
   <field type="string">pseudopotential</field>
   <set>
    <rc><c>   4</c><c>Al</c><c>     26.98100000</c><c>      3.00000000</c><c>  PAW_PBE Al 04Jan2001                  </c></rc>
   </set>
  </array>
 </atominfo>
 <structure name="initialpos" >
  <crystal>
   <varray name="basis" >
    <v>       4.04336400       0.00000000       0.00000000 </v>
    <v>       0.00000000       4.08359800       0.00000000 </v>
    <v>       0.00000000       0.00000000       4.04336400 </v>
   </varray>
   <i name="volume">     66.76189610 </i>
   <varray name="rec_basis" >
    <v>       0.24731882       0.00000000       0.00000000 </v>
    <v>       0.00000000       0.24488209       0.00000000 </v>
    <v>       0.00000000       0.00000000       0.24731882 </v>
   </varray>
  </crystal>
  <varray name="positions" >
   <v>       0.00000000       0.00000000       0.00000000 </v>
   <v>       0.00000000       0.50000000       0.50000000 </v>
   <v>       0.50000000       0.00000000       0.50000000 </v>
   <v>       0.50000000       0.50000000       0.00000000 </v>
  </varray>
 </structure>
 <calculation>
  <scstep>
   <time name="dav">    0.46    0.47</time>
   <time name="total">    0.55    0.57</time>
   <energy>
    <i name="alphaZ">     -0.80496453 </i>
    <i name="ewald">   -292.93950441 </i>
    <i name="hartreedc">     -0.42324209 </i>
    <i name="XCdc">   -105.04146752 </i>
    <i name="pawpsdc">    264.80062850 </i>
    <i name="pawaedc">   -136.98248303 </i>
    <i name="eentropy">     -0.00032657 </i>
    <i name="bandstr">     64.36820519 </i>
    <i name="atom">    214.15382826 </i>
    <i name="e_fr_energy">      7.13067380 </i>
    <i name="e_wo_entrp">      7.13100037 </i>
    <i name="e_0_energy">      7.13078266 </i>
   </energy>
  </scstep>
  <scstep>
   <time name="dav">    0.52    0.52</time>
   <time name="total">    0.52    0.52</time>
   <energy>
    <i name="e_fr_energy">    -14.34106598 </i>
    <i name="e_wo_entrp">    -14.34066043 </i>
    <i name="e_0_energy">    -14.34093079 </i>
   </energy>
  </scstep>
  <scstep>
   <time name="dav">    0.54    0.54</time>
   <time name="total">    0.54    0.54</time>
   <energy>
    <i name="e_fr_energy">    -15.05745920 </i>
    <i name="e_wo_entrp">    -15.05721812 </i>
    <i name="e_0_energy">    -15.05737884 </i>
   </energy>
  </scstep>
  <scstep>
   <time name="dav">    0.49    0.49</time>
   <time name="total">    0.49    0.49</time>
   <energy>
    <i name="e_fr_energy">    -15.06255207 </i>
    <i name="e_wo_entrp">    -15.06231235 </i>
    <i name="e_0_energy">    -15.06247216 </i>
   </energy>
  </scstep>
  <scstep>
   <time name="dav">    0.54    0.54</time>
   <time name="total">    0.59    0.59</time>
   <energy>
    <i name="e_fr_energy">    -15.06260502 </i>
    <i name="e_wo_entrp">    -15.06236539 </i>
    <i name="e_0_energy">    -15.06252515 </i>
   </energy>
  </scstep>
  <scstep>
   <time name="dav">    0.49    0.49</time>
   <time name="total">    0.62    0.62</time>
   <energy>
    <i name="e_fr_energy">    -15.01142929 </i>
    <i name="e_wo_entrp">    -15.01114681 </i>
    <i name="e_0_energy">    -15.01133513 </i>
   </energy>
  </scstep>
  <scstep>
   <time name="dav">    0.48    0.48</time>
   <time name="total">    0.61    0.61</time>
   <energy>
    <i name="e_fr_energy">    -14.97410167 </i>
    <i name="e_wo_entrp">    -14.97375674 </i>
    <i name="e_0_energy">    -14.97398670 </i>
   </energy>
  </scstep>
  <scstep>
   <time name="dav">    0.53    0.53</time>
   <time name="total">    0.67    0.67</time>
   <energy>
    <i name="e_fr_energy">    -14.97399853 </i>
    <i name="e_wo_entrp">    -14.97365057 </i>
    <i name="e_0_energy">    -14.97388254 </i>
   </energy>
  </scstep>
  <scstep>
   <time name="dav">    0.37    0.37</time>
   <time name="total">    0.46    0.46</time>
   <energy>
    <i name="alphaZ">     -0.80496453 </i>
    <i name="ewald">   -292.93950441 </i>
    <i name="hartreedc">     -0.41608213 </i>
    <i name="XCdc">   -104.61264148 </i>
    <i name="pawpsdc">    551.93688902 </i>
    <i name="pawaedc">   -424.16249175 </i>
    <i name="eentropy">     -0.00034878 </i>
    <i name="bandstr">     41.87132402 </i>
    <i name="atom">    214.15382826 </i>
    <i name="e_fr_energy">    -14.97399179 </i>
    <i name="e_wo_entrp">    -14.97364301 </i>
    <i name="e_0_energy">    -14.97387553 </i>
   </energy>
  </scstep>
  <structure>
   <crystal>
    <varray name="basis" >
     <v>       4.04336400       0.00000000       0.00000000 </v>
     <v>       0.00000000       4.08359800       0.00000000 </v>
     <v>       0.00000000       0.00000000       4.04336400 </v>
    </varray>
    <i name="volume">     66.76189610 </i>
    <varray name="rec_basis" >
     <v>       0.24731882       0.00000000       0.00000000 </v>
     <v>       0.00000000       0.24488209       0.00000000 </v>
     <v>       0.00000000       0.00000000       0.24731882 </v>
    </varray>
   </crystal>
   <varray name="positions" >
    <v>       0.00000000       0.00000000       0.00000000 </v>
    <v>       0.00000000       0.50000000       0.50000000 </v>
    <v>       0.50000000       0.00000000       0.50000000 </v>
    <v>       0.50000000       0.50000000       0.00000000 </v>
   </varray>
  </structure>
  <varray name="forces" >
   <v>       0.00000000      -0.00000000      -0.00000000 </v>
   <v>       0.00000000       0.00000000      -0.00000000 </v>
   <v>      -0.00000000      -0.00000000       0.00000000 </v>
   <v>       0.00000000       0.00000000       0.00000000 </v>
  </varray>
  <varray name="stress" >
   <v>      -5.14677878       0.00000000       0.00000000 </v>
   <v>      -0.00000000     -15.25712547       0.00000000 </v>
   <v>       0.00000000       0.00000000      -5.14677878 </v>
  </varray>
  <energy>
   <i name="e_fr_energy">    -14.97399179 </i>
   <i name="e_wo_entrp">    -14.97387553 </i>
   <i name="e_0_energy">     -0.00034878 </i>
  </energy>
  <time name="totalsc">    5.77    5.80</time>
  <eigenvalues>
   <array>
    <dimension dim="1">band</dimension>
    <dimension dim="2">kpoint</dimension>
    <dimension dim="3">spin</dimension>
    <field>eigene</field>
    <field>occ</field>
    <set>
     <set comment="spin 1">
      <set comment="kpoint 1">
       <r>   -3.1741    1.0000 </r>
       <r>    4.8923    1.0000 </r>
       <r>    5.0325    1.0000 </r>
       <r>    5.0325    1.0000 </r>
       <r>    6.1469    1.0000 </r>
       <r>    6.3500    1.0000 </r>
       <r>    6.3500    1.0000 </r>
       <r>   13.1002    0.0000 </r>
       <r>   13.1002    0.0000 </r>
       <r>   13.2116    0.0000 </r>
       <r>   13.3286    0.0000 </r>
       <r>   13.3303    0.0000 </r>
      </set>
      <set comment="kpoint 2">
       <r>   -3.0993    1.0000 </r>
       <r>    4.0540    1.0000 </r>
       <r>    4.9610    1.0000 </r>
       <r>    5.1011    1.0000 </r>
       <r>    6.2195    1.0000 </r>
       <r>    6.4225    1.0000 </r>
       <r>    7.4583    1.0000 </r>
       <r>   11.7873    0.0000 </r>
       <r>   11.9159    0.0000 </r>
       <r>   12.8184    0.0000 </r>
       <r>   13.0295    0.0000 </r>
       <r>   13.1741    0.0000 </r>
      </set>
      <set comment="kpoint 3">
       <r>   -2.8751    1.0000 </r>
       <r>    2.7463    1.0000 </r>
       <r>    5.1670    1.0000 </r>
       <r>    5.3067    1.0000 </r>
       <r>    6.4364    1.0000 </r>
       <r>    6.6387    1.0000 </r>
       <r>    9.1548   -0.0000 </r>
       <r>   10.4757    0.0000 </r>
       <r>   10.6069    0.0000 </r>
       <r>   11.8107    0.0000 </r>
       <r>   12.0176    0.0000 </r>
       <r>   13.3957    0.0000 </r>
      </set>
      <set comment="kpoint 4">
       <r>   -2.5021    1.0000 </r>
       <r>    1.5324    1.0000 </r>
       <r>    5.5104    1.0000 </r>
       <r>    5.6496    1.0000 </r>
       <r>    6.7936    1.0000 </r>
       <r>    6.9939    1.0000 </r>
       <r>    9.3011    0.0000 </r>
       <r>    9.4342    0.0000 </r>
       <r>   10.7492    0.0000 </r>
       <r>   10.9520    0.0000 </r>
       <r>   11.0158    0.0000 </r>
       <r>   13.7639    0.0000 </r>
      </set>
      <set comment="kpoint 5">
       <r>   -1.9816    1.0000 </r>
       <r>    0.4455    1.0000 </r>
       <r>    5.9917    1.0000 </r>
       <r>    6.1301    1.0000 </r>
       <r>    7.2799    1.0000 </r>
       <r>    7.4727    1.0000 </r>
       <r>    8.2655   -0.0000 </r>
       <r>    8.4002   -0.0000 </r>
       <r>    9.7713    0.0000 </r>
       <r>    9.9654    0.0000 </r>
       <r>   13.0061    0.0000 </r>
       <r>   14.2793    0.0000 </r>
      </set>
      <set comment="kpoint 6">
       <r>   -1.3153    1.0000 </r>
       <r>   -0.5052    1.0000 </r>
       <r>    6.6110    1.0000 </r>
       <r>    6.7484    1.0000 </r>
       <r>    7.3688    1.0000 </r>
       <r>    7.5050    1.0000 </r>
       <r>    7.8413    0.1676 </r>
       <r>    7.9791   -0.0000 </r>
       <r>    9.0097   -0.0000 </r>
       <r>    9.1479   -0.0000 </r>
       <r>   14.9239    0.0000 </r>
       <r>   14.9572    0.0000 </r>
      </set>
      <set comment="kpoint 7">
       <r>   -3.1008    1.0000 </r>
       <r>    3.9206    1.0000 </r>
       <r>    5.0997    1.0000 </r>
       <r>    5.0997    1.0000 </r>
       <r>    6.4211    1.0000 </r>
       <r>    6.4211    1.0000 </r>
       <r>    7.2461    1.0000 </r>
       <r>   11.7857    0.0000 </r>
       <r>   11.7857    0.0000 </r>
       <r>   12.8970    0.0000 </r>
       <r>   12.8970    0.0000 </r>
       <r>   13.2839    0.0000 </r>
      </set>
      <set comment="kpoint 8">
       <r>   -3.0260    1.0000 </r>
       <r>    3.9912    1.0000 </r>
       <r>    4.1232    1.0000 </r>
       <r>    5.1683    1.0000 </r>
       <r>    6.4931    1.0000 </r>
       <r>    7.3165    1.0000 </r>
       <r>    7.5270    1.0000 </r>
       <r>   10.8404    0.0000 </r>
       <r>   11.8549    0.0000 </r>
       <r>   11.9838    0.0000 </r>
       <r>   12.9627    0.0000 </r>
       <r>   13.0937    0.0000 </r>
      </set>
      <set comment="kpoint 9">
       <r>   -2.8019    1.0000 </r>
       <r>    2.8165    1.0000 </r>
       <r>    4.2030    1.0000 </r>
       <r>    5.3739    1.0000 </r>
       <r>    6.7071    1.0000 </r>
       <r>    7.5264    1.0000 </r>
       <r>    9.2211    0.0000 </r>
       <r>    9.5902    0.0000 </r>
       <r>   10.6746    0.0000 </r>
       <r>   12.0624    0.0000 </r>
       <r>   12.0848    0.0000 </r>
       <r>   12.7731    0.0000 </r>
      </set>
      <set comment="kpoint 10">
       <r>   -2.4291    1.0000 </r>
       <r>    1.6033    1.0000 </r>
       <r>    4.5553    1.0000 </r>
       <r>    5.7169    1.0000 </r>
       <r>    7.0511    1.0000 </r>
       <r>    7.8713   -0.0284 </r>
       <r>    8.4437   -0.0000 </r>
       <r>    9.5019    0.0000 </r>
       <r>   11.0240    0.0000 </r>
       <r>   11.0777    0.0000 </r>
       <r>   11.7315    0.0000 </r>
       <r>   12.4077    0.0000 </r>
      </set>
      <set comment="kpoint 11">
       <r>   -1.9089    1.0000 </r>
       <r>    0.5170    1.0000 </r>
       <r>    5.0471    1.0000 </r>
       <r>    6.1974    1.0000 </r>
       <r>    7.2367    1.0000 </r>
       <r>    7.7154    1.0061 </r>
       <r>    8.3316   -0.0000 </r>
       <r>    8.4678   -0.0000 </r>
       <r>   10.0534    0.0000 </r>
       <r>   10.7485    0.0000 </r>
       <r>   12.8902    0.0000 </r>
       <r>   13.0501    0.0000 </r>
      </set>
      <set comment="kpoint 12">
       <r>   -1.2428    1.0000 </r>
       <r>   -0.4332    1.0000 </r>
       <r>    5.6762    1.0000 </r>
       <r>    6.4359    1.0000 </r>
       <r>    6.8158    1.0000 </r>
       <r>    7.5725    1.0000 </r>
       <r>    8.2189   -0.0000 </r>
       <r>    8.6964   -0.0000 </r>
       <r>    9.4227    0.0000 </r>
       <r>    9.8970    0.0000 </r>
       <r>   13.5088    0.0000 </r>
       <r>   14.2620    0.0000 </r>
      </set>
      <set comment="kpoint 13">
       <r>   -2.8809    1.0000 </r>
       <r>    2.6343    1.0000 </r>
       <r>    5.3014    1.0000 </r>
       <r>    5.3014    1.0000 </r>
       <r>    6.6332    1.0000 </r>
       <r>    6.6332    1.0000 </r>
       <r>    8.9147   -0.0000 </r>
       <r>   10.5000    0.0000 </r>
       <r>   10.5000    0.0000 </r>
       <r>   11.9079    0.0000 </r>
       <r>   11.9079    0.0000 </r>
       <r>   13.5005    0.0000 </r>
      </set>
      <set comment="kpoint 14">
       <r>   -2.8063    1.0000 </r>
       <r>    2.7060    1.0000 </r>
       <r>    4.3305    1.0000 </r>
       <r>    5.3700    1.0000 </r>
       <r>    6.7030    1.0000 </r>
       <r>    7.7320    1.0164 </r>
       <r>    8.9829   -0.0000 </r>
       <r>    9.6104    0.0000 </r>
       <r>   10.5690    0.0000 </r>
       <r>   11.9769    0.0000 </r>
       <r>   12.1875    0.0000 </r>
       <r>   12.8690    0.0000 </r>
      </set>
      <set comment="kpoint 15">
       <r>   -2.5825    1.0000 </r>
       <r>    2.9209    1.0000 </r>
       <r>    3.0270    1.0000 </r>
       <r>    5.5757    1.0000 </r>
       <r>    6.9036    1.0000 </r>
       <r>    8.3819   -0.0000 </r>
       <r>    9.1850    0.0000 </r>
       <r>    9.4170    0.0000 </r>
       <r>   10.7761    0.0000 </r>
       <r>   10.8777    0.0000 </r>
       <r>   12.1853    0.0000 </r>
       <r>   12.2873    0.0000 </r>
      </set>
      <set comment="kpoint 16">
       <r>   -2.2103    1.0000 </r>
       <r>    1.8160    1.0000 </r>
       <r>    3.2784    1.0000 </r>
       <r>    5.9188    1.0000 </r>
       <r>    6.9909    1.0000 </r>
       <r>    7.4898    1.0000 </r>
       <r>    9.5066    0.0000 </r>
       <r>    9.7048    0.0000 </r>
       <r>   11.1210    0.0000 </r>
       <r>   11.2473    0.0000 </r>
       <r>   11.2481    0.0000 </r>
       <r>   12.5468    0.0000 </r>
      </set>
      <set comment="kpoint 17">
       <r>   -1.6909    1.0000 </r>
       <r>    0.7314    1.0000 </r>
       <r>    3.7774    1.0000 </r>
       <r>    6.0913    1.0000 </r>
       <r>    6.3995    1.0000 </r>
       <r>    7.8448    0.1269 </r>
       <r>    8.6705   -0.0000 </r>
       <r>    9.7796    0.0000 </r>
       <r>   10.4593    0.0000 </r>
       <r>   11.6035    0.0000 </r>
       <r>   12.3292    0.0000 </r>
       <r>   12.8262    0.0000 </r>
      </set>
      <set comment="kpoint 18">
       <r>   -1.0258    1.0000 </r>
       <r>   -0.2174    1.0000 </r>
       <r>    4.4159    1.0000 </r>
       <r>    5.1906    1.0000 </r>
       <r>    7.0181    1.0000 </r>
       <r>    7.7750    1.0098 </r>
       <r>    8.4643   -0.0000 </r>
       <r>    9.2008    0.0000 </r>
       <r>   10.7622    0.0000 </r>
       <r>   11.4759    0.0000 </r>
       <r>   12.2232    0.0000 </r>
       <r>   12.9793    0.0000 </r>
      </set>
      <set comment="kpoint 19">
       <r>   -2.5152    1.0000 </r>
       <r>    1.4424    1.0000 </r>
       <r>    5.6377    1.0000 </r>
       <r>    5.6377    1.0000 </r>
       <r>    6.9819    1.0000 </r>
       <r>    6.9819    1.0000 </r>
       <r>    9.3495    0.0000 </r>
       <r>    9.3495    0.0000 </r>
       <r>   10.7429    0.0000 </r>
       <r>   10.8657    0.0000 </r>
       <r>   10.8657    0.0000 </r>
       <r>   13.8609    0.0000 </r>
      </set>
      <set comment="kpoint 20">
       <r>   -2.4408    1.0000 </r>
       <r>    1.5148    1.0000 </r>
       <r>    4.6755    1.0000 </r>
       <r>    5.7063    1.0000 </r>
       <r>    7.0414    1.0000 </r>
       <r>    8.0676   -0.0000 </r>
       <r>    8.4847   -0.0000 </r>
       <r>    9.4184    0.0000 </r>
       <r>   10.8075    0.0000 </r>
       <r>   10.9404    0.0000 </r>
       <r>   11.8550    0.0000 </r>
       <r>   12.5267    0.0000 </r>
      </set>
      <set comment="kpoint 21">
       <r>   -2.2176    1.0000 </r>
       <r>    1.7319    1.0000 </r>
       <r>    3.3772    1.0000 </r>
       <r>    5.9122    1.0000 </r>
       <r>    7.0020    1.0000 </r>
       <r>    7.4935    1.0000 </r>
       <r>    9.6253    0.0000 </r>
       <r>    9.7215    0.0000 </r>
       <r>   10.9918    0.0000 </r>
       <r>   11.1782    0.0000 </r>
       <r>   11.2162    0.0000 </r>
       <r>   12.6322    0.0000 </r>
      </set>
      <set comment="kpoint 22">
       <r>   -1.8463    1.0000 </r>
       <r>    2.0929    1.0000 </r>
       <r>    2.1697    1.0000 </r>
       <r>    5.9825    1.0000 </r>
       <r>    6.2554    1.0000 </r>
       <r>    7.7014    1.0021 </r>
       <r>    9.9700    0.0000 </r>
       <r>   10.0429    0.0000 </r>
       <r>   11.1440    0.0000 </r>
       <r>   11.2266    0.0000 </r>
       <r>   11.7635    0.0000 </r>
       <r>   11.8659    0.0000 </r>
      </set>
      <set comment="kpoint 23">
       <r>   -1.3282    1.0000 </r>
       <r>    1.0880    1.0000 </r>
       <r>    2.5968    1.0000 </r>
       <r>    4.9435    1.0000 </r>
       <r>    6.7364    1.0000 </r>
       <r>    8.1891   -0.0000 </r>
       <r>    9.0083   -0.0000 </r>
       <r>   10.4468    0.0000 </r>
       <r>   10.4526    0.0000 </r>
       <r>   11.8737    0.0000 </r>
       <r>   11.9413    0.0000 </r>
       <r>   12.7244    0.0000 </r>
      </set>
      <set comment="kpoint 24">
       <r>   -0.6648    1.0000 </r>
       <r>    0.1416    1.0000 </r>
       <r>    3.2420    1.0000 </r>
       <r>    4.0257    1.0000 </r>
       <r>    7.3553    1.0000 </r>
       <r>    8.1125   -0.0000 </r>
       <r>    8.8224   -0.0000 </r>
       <r>    9.5842    0.0000 </r>
       <r>   11.0727    0.0000 </r>
       <r>   11.8302    0.0000 </r>
       <r>   12.5045    0.0000 </r>
       <r>   12.5174    0.0000 </r>
      </set>
      <set comment="kpoint 25">
       <r>   -2.0048    1.0000 </r>
       <r>    0.3759    1.0000 </r>
       <r>    6.1089    1.0000 </r>
       <r>    6.1089    1.0000 </r>
       <r>    7.4542    1.0000 </r>
       <r>    7.4542    1.0000 </r>
       <r>    8.3353   -0.0000 </r>
       <r>    8.3353   -0.0000 </r>
       <r>    9.9035    0.0000 </r>
       <r>    9.9035    0.0000 </r>
       <r>   12.6979    0.0000 </r>
       <r>   14.3640    0.0000 </r>
      </set>
      <set comment="kpoint 26">
       <r>   -1.9306    1.0000 </r>
       <r>    0.4489    1.0000 </r>
       <r>    5.1570    1.0000 </r>
       <r>    6.1775    1.0000 </r>
       <r>    7.2745    1.0000 </r>
       <r>    7.7206    1.0085 </r>
       <r>    8.4041   -0.0000 </r>
       <r>    8.5079   -0.0000 </r>
       <r>   10.0004    0.0000 </r>
       <r>   10.8920    0.0000 </r>
       <r>   12.7524    0.0000 </r>
       <r>   13.0005    0.0000 </r>
      </set>
      <set comment="kpoint 27">
       <r>   -1.7082    1.0000 </r>
       <r>    0.6676    1.0000 </r>
       <r>    3.8660    1.0000 </r>
       <r>    6.1325    1.0000 </r>
       <r>    6.3836    1.0000 </r>
       <r>    7.8293    0.3389 </r>
       <r>    8.6108   -0.0000 </r>
       <r>    9.8519    0.0000 </r>
       <r>   10.5423    0.0000 </r>
       <r>   11.6896    0.0000 </r>
       <r>   12.4974    0.0000 </r>
       <r>   12.7689    0.0000 </r>
      </set>
      <set comment="kpoint 28">
       <r>   -1.3383    1.0000 </r>
       <r>    1.0315    1.0000 </r>
       <r>    2.6635    1.0000 </r>
       <r>    4.9636    1.0000 </r>
       <r>    6.7271    1.0000 </r>
       <r>    8.1795   -0.0000 </r>
       <r>    8.9553   -0.0000 </r>
       <r>   10.4026    0.0000 </r>
       <r>   10.5162    0.0000 </r>
       <r>   11.9288    0.0000 </r>
       <r>   12.1802    0.0000 </r>
       <r>   12.7444    0.0000 </r>
      </set>
      <set comment="kpoint 29">
       <r>   -0.8220    1.0000 </r>
       <r>    1.5393    1.0000 </r>
       <r>    1.5858    1.0000 </r>
       <r>    3.9069    1.0000 </r>
       <r>    7.2084    1.0000 </r>
       <r>    8.6769   -0.0000 </r>
       <r>    9.4376    0.0000 </r>
       <r>    9.4814    0.0000 </r>
       <r>   10.9155    0.0000 </r>
       <r>   10.9585    0.0000 </r>
       <r>   11.7116    0.0000 </r>
       <r>   13.1560    0.0000 </r>
      </set>
      <set comment="kpoint 30">
       <r>   -0.1609    1.0000 </r>
       <r>    0.6427    1.0000 </r>
       <r>    2.1897    1.0000 </r>
       <r>    2.9800    1.0000 </r>
       <r>    7.8277    0.3637 </r>
       <r>    8.5853   -0.0000 </r>
       <r>    9.3120    0.0000 </r>
       <r>   10.0579    0.0000 </r>
       <r>   10.0766    0.0000 </r>
       <r>   10.8160    0.0000 </r>
       <r>   11.5424    0.0000 </r>
       <r>   12.2912    0.0000 </r>
      </set>
      <set comment="kpoint 31">
       <r>   -1.3513    1.0000 </r>
       <r>   -0.5568    1.0000 </r>
       <r>    6.7153    1.0000 </r>
       <r>    6.7153    1.0000 </r>
       <r>    7.4573    1.0000 </r>
       <r>    7.4573    1.0000 </r>
       <r>    7.9782   -0.0000 </r>
       <r>    7.9782   -0.0000 </r>
       <r>    9.1287   -0.0000 </r>
       <r>    9.1287   -0.0000 </r>
       <r>   14.7693    0.0000 </r>
       <r>   15.0462    0.0000 </r>
      </set>
      <set comment="kpoint 32">
       <r>   -1.2774    1.0000 </r>
       <r>   -0.4833    1.0000 </r>
       <r>    5.7729    1.0000 </r>
       <r>    6.5159    1.0000 </r>
       <r>    6.7840    1.0000 </r>
       <r>    7.5261    1.0000 </r>
       <r>    8.1936   -0.0000 </r>
       <r>    8.7455   -0.0000 </r>
       <r>    9.5026    0.0000 </r>
       <r>   10.0523    0.0000 </r>
       <r>   13.6078    0.0000 </r>
       <r>   14.3672    0.0000 </r>
      </set>
      <set comment="kpoint 33">
       <r>   -1.0560    1.0000 </r>
       <r>   -0.2631    1.0000 </r>
       <r>    4.4916    1.0000 </r>
       <r>    5.2505    1.0000 </r>
       <r>    6.9902    1.0000 </r>
       <r>    7.7325    1.0168 </r>
       <r>    8.4368   -0.0000 </r>
       <r>    9.1657   -0.0000 </r>
       <r>   10.9576    0.0000 </r>
       <r>   11.6632    0.0000 </r>
       <r>   12.2975    0.0000 </r>
       <r>   13.0391    0.0000 </r>
      </set>
      <set comment="kpoint 34">
       <r>   -0.6878    1.0000 </r>
       <r>    0.1031    1.0000 </r>
       <r>    3.2958    1.0000 </r>
       <r>    4.0640    1.0000 </r>
       <r>    7.3341    1.0000 </r>
       <r>    8.0767   -0.0000 </r>
       <r>    8.8006   -0.0000 </r>
       <r>    9.5489    0.0000 </r>
       <r>   11.1245    0.0000 </r>
       <r>   11.8675    0.0000 </r>
       <r>   12.5555    0.0000 </r>
       <r>   12.7511    0.0000 </r>
      </set>
      <set comment="kpoint 35">
       <r>   -0.1738    1.0000 </r>
       <r>    0.6143    1.0000 </r>
       <r>    2.2232    1.0000 </r>
       <r>    2.9980    1.0000 </r>
       <r>    7.8158    0.5635 </r>
       <r>    8.5587   -0.0000 </r>
       <r>    9.2996    0.0000 </r>
       <r>   10.0496    0.0000 </r>
       <r>   10.0898    0.0000 </r>
       <r>   10.8332    0.0000 </r>
       <r>   11.5746    0.0000 </r>
       <r>   12.3088    0.0000 </r>
      </set>
      <set comment="kpoint 36">
       <r>    0.4843    1.0000 </r>
       <r>    1.2689    1.0000 </r>
       <r>    1.2844    1.0000 </r>
       <r>    2.0645    1.0000 </r>
       <r>    8.4355   -0.0000 </r>
       <r>    9.1788   -0.0000 </r>
       <r>    9.1934    0.0000 </r>
       <r>    9.9326    0.0000 </r>
       <r>    9.9370    0.0000 </r>
       <r>   10.6792    0.0000 </r>
       <r>   10.6941    0.0000 </r>
       <r>   11.4350    0.0000 </r>
      </set>
      <set comment="kpoint 37">
       <r>   -3.0245    1.0000 </r>
       <r>    4.1246    1.0000 </r>
       <r>    4.1246    1.0000 </r>
       <r>    5.0296    1.0000 </r>
       <r>    6.2918    1.0000 </r>
       <r>    7.5283    1.0000 </r>
       <r>    7.5283    1.0000 </r>
       <r>   10.9676    0.0000 </r>
       <r>   11.8567    0.0000 </r>
       <r>   11.8567    0.0000 </r>
       <r>   12.8840    0.0000 </r>
       <r>   12.8840    0.0000 </r>
      </set>
      <set comment="kpoint 38">
       <r>   -2.8004    1.0000 </r>
       <r>    2.8179    1.0000 </r>
       <r>    4.3360    1.0000 </r>
       <r>    5.2356    1.0000 </r>
       <r>    6.5070    1.0000 </r>
       <r>    7.7372    1.0209 </r>
       <r>    9.2224    0.0000 </r>
       <r>    9.7162    0.0000 </r>
       <r>   10.5449    0.0000 </r>
       <r>   11.8797    0.0000 </r>
       <r>   12.0648    0.0000 </r>
       <r>   12.9861    0.0000 </r>
      </set>
      <set comment="kpoint 39">
       <r>   -2.4277    1.0000 </r>
       <r>    1.6047    1.0000 </r>
       <r>    4.6877    1.0000 </r>
       <r>    5.5792    1.0000 </r>
       <r>    6.8568    1.0000 </r>
       <r>    8.0786   -0.0000 </r>
       <r>    8.5652   -0.0000 </r>
       <r>    9.3702    0.0000 </r>
       <r>   10.8244    0.0000 </r>
       <r>   11.0786    0.0000 </r>
       <r>   11.9436    0.0000 </r>
       <r>   12.4111    0.0000 </r>
      </set>
      <set comment="kpoint 40">
       <r>   -1.9074    1.0000 </r>
       <r>    0.5185    1.0000 </r>
       <r>    5.1787    1.0000 </r>
       <r>    6.0604    1.0000 </r>
       <r>    7.2213    1.0000 </r>
       <r>    7.6613    1.0000 </r>
       <r>    8.3345   -0.0000 </r>
       <r>    8.5201   -0.0000 </r>
       <r>    9.8741    0.0000 </r>
       <r>   10.9579    0.0000 </r>
       <r>   12.8950    0.0000 </r>
       <r>   13.0484    0.0000 </r>
      </set>
      <set comment="kpoint 41">
       <r>   -1.2414    1.0000 </r>
       <r>   -0.4318    1.0000 </r>
       <r>    5.8063    1.0000 </r>
       <r>    6.5612    1.0000 </r>
       <r>    6.6799    1.0000 </r>
       <r>    7.4378    1.0000 </r>
       <r>    8.0360   -0.0000 </r>
       <r>    8.6518   -0.0000 </r>
       <r>    9.4779    0.0000 </r>
       <r>   10.0949    0.0000 </r>
       <r>   13.5153    0.0000 </r>
       <r>   14.2744    0.0000 </r>
      </set>
      <set comment="kpoint 42">
       <r>   -2.9512    1.0000 </r>
       <r>    4.0618    1.0000 </r>
       <r>    4.1937    1.0000 </r>
       <r>    4.1937    1.0000 </r>
       <r>    7.3863    1.0000 </r>
       <r>    7.5964    1.0000 </r>
       <r>    7.5964    1.0000 </r>
       <r>   10.9103    0.0000 </r>
       <r>   10.9103    0.0000 </r>
       <r>   11.0359    0.0000 </r>
       <r>   13.5525    0.0000 </r>
       <r>   13.5527    0.0000 </r>
      </set>
      <set comment="kpoint 43">
       <r>   -2.7272    1.0000 </r>
       <r>    2.8881    1.0000 </r>
       <r>    4.2735    1.0000 </r>
       <r>    4.4050    1.0000 </r>
       <r>    7.5933    1.0000 </r>
       <r>    7.8010    0.7911 </r>
       <r>    9.2860    0.0000 </r>
       <r>    9.6636    0.0000 </r>
       <r>    9.7869    0.0000 </r>
       <r>   11.1214    0.0000 </r>
       <r>   12.8400    0.0000 </r>
       <r>   13.0510    0.0000 </r>
      </set>
      <set comment="kpoint 44">
       <r>   -2.3547    1.0000 </r>
       <r>    1.6757    1.0000 </r>
       <r>    4.6255    1.0000 </r>
       <r>    4.7564    1.0000 </r>
       <r>    7.9128   -0.0120 </r>
       <r>    8.0850   -0.0000 </r>
       <r>    8.5671   -0.0000 </r>
       <r>    8.6566   -0.0000 </r>
       <r>   11.1014    0.0000 </r>
       <r>   11.5084    0.0000 </r>
       <r>   11.8015    0.0000 </r>
       <r>   12.0117    0.0000 </r>
      </set>
      <set comment="kpoint 45">
       <r>   -1.8347    1.0000 </r>
       <r>    0.5900    1.0000 </r>
       <r>    5.1164    1.0000 </r>
       <r>    5.2463    1.0000 </r>
       <r>    7.4170    1.0000 </r>
       <r>    7.5355    1.0000 </r>
       <r>    8.4805   -0.0000 </r>
       <r>    8.6767   -0.0000 </r>
       <r>   10.8256    0.0000 </r>
       <r>   11.0309    0.0000 </r>
       <r>   11.9207    0.0000 </r>
       <r>   13.1557    0.0000 </r>
      </set>
      <set comment="kpoint 46">
       <r>   -1.1690    1.0000 </r>
       <r>   -0.3598    1.0000 </r>
       <r>    5.7400    1.0000 </r>
       <r>    5.8646    1.0000 </r>
       <r>    6.5364    1.0000 </r>
       <r>    6.6592    1.0000 </r>
       <r>    9.0408   -0.0000 </r>
       <r>    9.2032    0.0000 </r>
       <r>   10.0310    0.0000 </r>
       <r>   10.1944    0.0000 </r>
       <r>   12.5458    0.0000 </r>
       <r>   13.2987    0.0000 </r>
      </set>
      <set comment="kpoint 47">
       <r>   -2.7316    1.0000 </r>
       <r>    2.7777    1.0000 </r>
       <r>    4.4009    1.0000 </r>
       <r>    4.4009    1.0000 </r>
       <r>    7.7972    0.8394 </r>
       <r>    7.7972    0.8394 </r>
       <r>    9.0492   -0.0000 </r>
       <r>    9.6836    0.0000 </r>
       <r>    9.6836    0.0000 </r>
       <r>   11.2416    0.0000 </r>
       <r>   12.9358    0.0000 </r>
       <r>   12.9358    0.0000 </r>
      </set>
      <set comment="kpoint 48">
       <r>   -2.5080    1.0000 </r>
       <r>    2.9925    1.0000 </r>
       <r>    3.0985    1.0000 </r>
       <r>    4.6117    1.0000 </r>
       <r>    7.9449   -0.0011 </r>
       <r>    8.5035   -0.0000 </r>
       <r>    9.2319    0.0000 </r>
       <r>    9.4391    0.0000 </r>
       <r>    9.9381    0.0000 </r>
       <r>   10.0129    0.0000 </r>
       <r>   13.1365    0.0000 </r>
       <r>   13.2473    0.0000 </r>
      </set>
      <set comment="kpoint 49">
       <r>   -2.1360    1.0000 </r>
       <r>    1.8882    1.0000 </r>
       <r>    3.3498    1.0000 </r>
       <r>    4.9617    1.0000 </r>
       <r>    7.2127    1.0000 </r>
       <r>    8.4238   -0.0000 </r>
       <r>    8.7779   -0.0000 </r>
       <r>    9.6458    0.0000 </r>
       <r>   10.1973    0.0000 </r>
       <r>   11.3760    0.0000 </r>
       <r>   12.2174    0.0000 </r>
       <r>   13.3237    0.0000 </r>
      </set>
      <set comment="kpoint 50">
       <r>   -1.6168    1.0000 </r>
       <r>    0.8042    1.0000 </r>
       <r>    3.8483    1.0000 </r>
       <r>    5.4418    1.0000 </r>
       <r>    6.1972    1.0000 </r>
       <r>    7.7626    1.0342 </r>
       <r>    8.8939   -0.0000 </r>
       <r>   10.0725    0.0000 </r>
       <r>   10.6934    0.0000 </r>
       <r>   11.2660    0.0000 </r>
       <r>   12.3988    0.0000 </r>
       <r>   12.9604    0.0000 </r>
      </set>
      <set comment="kpoint 51">
       <r>   -0.9521    1.0000 </r>
       <r>   -0.1441    1.0000 </r>
       <r>    4.4858    1.0000 </r>
       <r>    5.2530    1.0000 </r>
       <r>    6.1062    1.0000 </r>
       <r>    6.8638    1.0000 </r>
       <r>    9.5046    0.0000 </r>
       <r>   10.1708    0.0000 </r>
       <r>   10.8994    0.0000 </r>
       <r>   11.3165    0.0000 </r>
       <r>   11.5520    0.0000 </r>
       <r>   12.0727    0.0000 </r>
      </set>
      <set comment="kpoint 52">
       <r>   -2.3663    1.0000 </r>
       <r>    1.5872    1.0000 </r>
       <r>    4.7455    1.0000 </r>
       <r>    4.7455    1.0000 </r>
       <r>    8.0834   -0.0000 </r>
       <r>    8.0834   -0.0000 </r>
       <r>    8.6004   -0.0000 </r>
       <r>    8.6004   -0.0000 </r>
       <r>   10.8580    0.0000 </r>
       <r>   11.5958    0.0000 </r>
       <r>   11.9248    0.0000 </r>
       <r>   11.9248    0.0000 </r>
      </set>
      <set comment="kpoint 53">
       <r>   -2.1432    1.0000 </r>
       <r>    1.8042    1.0000 </r>
       <r>    3.4485    1.0000 </r>
       <r>    4.9549    1.0000 </r>
       <r>    7.2336    1.0000 </r>
       <r>    8.4178   -0.0000 </r>
       <r>    8.7066   -0.0000 </r>
       <r>    9.8616    0.0000 </r>
       <r>   10.2829    0.0000 </r>
       <r>   11.1198    0.0000 </r>
       <r>   12.1367    0.0000 </r>
       <r>   13.4599    0.0000 </r>
      </set>
      <set comment="kpoint 54">
       <r>   -1.7722    1.0000 </r>
       <r>    2.1650    1.0000 </r>
       <r>    2.2418    1.0000 </r>
       <r>    5.2956    1.0000 </r>
       <r>    6.0888    1.0000 </r>
       <r>    8.7541   -0.0000 </r>
       <r>    9.0686   -0.0000 </r>
       <r>    9.1408   -0.0000 </r>
       <r>   11.4143    0.0000 </r>
       <r>   11.6530    0.0000 </r>
       <r>   12.5181    0.0000 </r>
       <r>   12.5746    0.0000 </r>
      </set>
      <set comment="kpoint 55">
       <r>   -1.2543    1.0000 </r>
       <r>    1.1606    1.0000 </r>
       <r>    2.6686    1.0000 </r>
       <r>    5.0056    1.0000 </r>
       <r>    5.8211    1.0000 </r>
       <r>    8.1084   -0.0000 </r>
       <r>    9.2410    0.0000 </r>
       <r>    9.5577    0.0000 </r>
       <r>   11.4049    0.0000 </r>
       <r>   11.8334    0.0000 </r>
       <r>   12.0727    0.0000 </r>
       <r>   12.8572    0.0000 </r>
      </set>
      <set comment="kpoint 56">
       <r>   -0.5913    1.0000 </r>
       <r>    0.2147    1.0000 </r>
       <r>    3.3133    1.0000 </r>
       <r>    4.0959    1.0000 </r>
       <r>    6.4407    1.0000 </r>
       <r>    7.2064    1.0000 </r>
       <r>    9.8637    0.0000 </r>
       <r>   10.1818    0.0000 </r>
       <r>   10.6095    0.0000 </r>
       <r>   10.9410    0.0000 </r>
       <r>   12.5917    0.0000 </r>
       <r>   13.3005    0.0000 </r>
      </set>
      <set comment="kpoint 57">
       <r>   -1.8564    1.0000 </r>
       <r>    0.5218    1.0000 </r>
       <r>    5.2261    1.0000 </r>
       <r>    5.2261    1.0000 </r>
       <r>    7.4782    1.0000 </r>
       <r>    7.4782    1.0000 </r>
       <r>    8.6598   -0.0000 </r>
       <r>    8.6598   -0.0000 </r>
       <r>   10.9679    0.0000 </r>
       <r>   10.9679    0.0000 </r>
       <r>   12.0203    0.0000 </r>
       <r>   12.8561    0.0000 </r>
      </set>
      <set comment="kpoint 58">
       <r>   -1.6342    1.0000 </r>
       <r>    0.7405    1.0000 </r>
       <r>    3.9369    1.0000 </r>
       <r>    5.4267    1.0000 </r>
       <r>    6.2378    1.0000 </r>
       <r>    7.7032    1.0024 </r>
       <r>    8.8782   -0.0000 </r>
       <r>   10.2688    0.0000 </r>
       <r>   10.7775    0.0000 </r>
       <r>   11.2240    0.0000 </r>
       <r>   12.5667    0.0000 </r>
       <r>   13.0016    0.0000 </r>
      </set>
      <set comment="kpoint 59">
       <r>   -1.2644    1.0000 </r>
       <r>    1.1041    1.0000 </r>
       <r>    2.7353    1.0000 </r>
       <r>    5.0252    1.0000 </r>
       <r>    5.8123    1.0000 </r>
       <r>    8.0550   -0.0000 </r>
       <r>    9.2315    0.0000 </r>
       <r>    9.6212    0.0000 </r>
       <r>   11.3905    0.0000 </r>
       <r>   11.8531    0.0000 </r>
       <r>   12.2813    0.0000 </r>
       <r>   12.8879    0.0000 </r>
      </set>
      <set comment="kpoint 60">
       <r>   -0.7484    1.0000 </r>
       <r>    1.6118    1.0000 </r>
       <r>    1.6582    1.0000 </r>
       <r>    3.9772    1.0000 </r>
       <r>    6.2918    1.0000 </r>
       <r>    8.5433   -0.0000 </r>
       <r>    8.5875   -0.0000 </r>
       <r>    9.7220    0.0000 </r>
       <r>   10.8266    0.0000 </r>
       <r>   11.9264    0.0000 </r>
       <r>   11.9682    0.0000 </r>
       <r>   13.9016    0.0000 </r>
      </set>
      <set comment="kpoint 61">
       <r>   -0.0877    1.0000 </r>
       <r>    0.7156    1.0000 </r>
       <r>    2.2617    1.0000 </r>
       <r>    3.0516    1.0000 </r>
       <r>    6.9193    1.0000 </r>
       <r>    7.6855    1.0005 </r>
       <r>    9.1689   -0.0000 </r>
       <r>    9.9306    0.0000 </r>
       <r>   10.3468    0.0000 </r>
       <r>   11.0998    0.0000 </r>
       <r>   12.5491    0.0000 </r>
       <r>   13.2921    0.0000 </r>
      </set>
      <set comment="kpoint 62">
       <r>   -1.2036    1.0000 </r>
       <r>   -0.4099    1.0000 </r>
       <r>    5.8347    1.0000 </r>
       <r>    5.8347    1.0000 </r>
       <r>    6.6148    1.0000 </r>
       <r>    6.6148    1.0000 </r>
       <r>    9.1960    0.0000 </r>
       <r>    9.1960    0.0000 </r>
       <r>   10.1676    0.0000 </r>
       <r>   10.1676    0.0000 </r>
       <r>   12.6388    0.0000 </r>
       <r>   13.3775    0.0000 </r>
      </set>
      <set comment="kpoint 63">
       <r>   -0.9823    1.0000 </r>
       <r>   -0.1898    1.0000 </r>
       <r>    4.5613    1.0000 </r>
       <r>    5.3113    1.0000 </r>
       <r>    6.0796    1.0000 </r>
       <r>    6.8211    1.0000 </r>
       <r>    9.4788    0.0000 </r>
       <r>   10.1621    0.0000 </r>
       <r>   11.0685    0.0000 </r>
       <r>   11.3894    0.0000 </r>
       <r>   11.7376    0.0000 </r>
       <r>   12.1310    0.0000 </r>
      </set>
      <set comment="kpoint 64">
       <r>   -0.6142    1.0000 </r>
       <r>    0.1762    1.0000 </r>
       <r>    3.3671    1.0000 </r>
       <r>    4.1341    1.0000 </r>
       <r>    6.4192    1.0000 </r>
       <r>    7.1701    1.0000 </r>
       <r>    9.8425    0.0000 </r>
       <r>   10.2334    0.0000 </r>
       <r>   10.5761    0.0000 </r>
       <r>   10.9780    0.0000 </r>
       <r>   12.8236    0.0000 </r>
       <r>   13.5270    0.0000 </r>
      </set>
      <set comment="kpoint 65">
       <r>   -0.1005    1.0000 </r>
       <r>    0.6872    1.0000 </r>
       <r>    2.2953    1.0000 </r>
       <r>    3.0696    1.0000 </r>
       <r>    6.9072    1.0000 </r>
       <r>    7.6586    1.0000 </r>
       <r>    9.2009    0.0000 </r>
       <r>    9.9479    0.0000 </r>
       <r>   10.3346    0.0000 </r>
       <r>   11.0732    0.0000 </r>
       <r>   12.5815    0.0000 </r>
       <r>   13.3100    0.0000 </r>
      </set>
      <set comment="kpoint 66">
       <r>    0.5573    1.0000 </r>
       <r>    1.3414    1.0000 </r>
       <r>    1.3569    1.0000 </r>
       <r>    2.1367    1.0000 </r>
       <r>    7.5348    1.0000 </r>
       <r>    8.2854   -0.0000 </r>
       <r>    8.3002   -0.0000 </r>
       <r>    9.0492   -0.0000 </r>
       <r>   10.9584    0.0000 </r>
       <r>   11.6954    0.0000 </r>
       <r>   11.7103    0.0000 </r>
       <r>   12.4434    0.0000 </r>
      </set>
      <set comment="kpoint 67">
       <r>   -2.5766    1.0000 </r>
       <r>    3.0326    1.0000 </r>
       <r>    3.0326    1.0000 </r>
       <r>    5.4417    1.0000 </r>
       <r>    6.7127    1.0000 </r>
       <r>    8.4827   -0.0000 </r>
       <r>    9.4216    0.0000 </r>
       <r>    9.4216    0.0000 </r>
       <r>   10.7524    0.0000 </r>
       <r>   10.7524    0.0000 </r>
       <r>   12.0883    0.0000 </r>
       <r>   12.0883    0.0000 </r>
      </set>
      <set comment="kpoint 68">
       <r>   -2.2045    1.0000 </r>
       <r>    1.8216    1.0000 </r>
       <r>    3.3897    1.0000 </r>
       <r>    5.7854    1.0000 </r>
       <r>    6.9419    1.0000 </r>
       <r>    7.4493    1.0000 </r>
       <r>    9.5775    0.0000 </r>
       <r>    9.7271    0.0000 </r>
       <r>   11.0671    0.0000 </r>
       <r>   11.0980    0.0000 </r>
       <r>   11.2481    0.0000 </r>
       <r>   12.4531    0.0000 </r>
      </set>
      <set comment="kpoint 69">
       <r>   -1.6851    1.0000 </r>
       <r>    0.7371    1.0000 </r>
       <r>    3.8881    1.0000 </r>
       <r>    6.1940    1.0000 </r>
       <r>    6.2668    1.0000 </r>
       <r>    7.6540    1.0000 </r>
       <r>    8.5415   -0.0000 </r>
       <r>    9.7680    0.0000 </r>
       <r>   10.5117    0.0000 </r>
       <r>   11.5816    0.0000 </r>
       <r>   12.5676    0.0000 </r>
       <r>   12.7464    0.0000 </r>
      </set>
      <set comment="kpoint 70">
       <r>   -1.0201    1.0000 </r>
       <r>   -0.2117    1.0000 </r>
       <r>    4.5258    1.0000 </r>
       <r>    5.2989    1.0000 </r>
       <r>    6.8865    1.0000 </r>
       <r>    7.6446    1.0000 </r>
       <r>    8.2708   -0.0000 </r>
       <r>    9.0181   -0.0000 </r>
       <r>   10.9865    0.0000 </r>
       <r>   11.7123    0.0000 </r>
       <r>   12.2026    0.0000 </r>
       <r>   12.9603    0.0000 </r>
      </set>
      <set comment="kpoint 71">
       <r>   -2.5036    1.0000 </r>
       <r>    3.1027    1.0000 </r>
       <r>    3.1027    1.0000 </r>
       <r>    4.4846    1.0000 </r>
       <r>    7.7714    1.0209 </r>
       <r>    8.5764   -0.0000 </r>
       <r>    9.4392    0.0000 </r>
       <r>    9.4392    0.0000 </r>
       <r>    9.9216    0.0000 </r>
       <r>    9.9216    0.0000 </r>
       <r>   13.0410    0.0000 </r>
       <r>   13.0410    0.0000 </r>
      </set>
      <set comment="kpoint 72">
       <r>   -2.1316    1.0000 </r>
       <r>    1.8924    1.0000 </r>
       <r>    3.4596    1.0000 </r>
       <r>    4.8354    1.0000 </r>
       <r>    7.3074    1.0000 </r>
       <r>    8.2290   -0.0000 </r>
       <r>    8.6651   -0.0000 </r>
       <r>    9.8704    0.0000 </r>
       <r>   10.1774    0.0000 </r>
       <r>   11.3792    0.0000 </r>
       <r>   12.0145    0.0000 </r>
       <r>   13.3780    0.0000 </r>
      </set>
      <set comment="kpoint 73">
       <r>   -1.6125    1.0000 </r>
       <r>    0.8085    1.0000 </r>
       <r>    3.9575    1.0000 </r>
       <r>    5.3198    1.0000 </r>
       <r>    6.2989    1.0000 </r>
       <r>    7.6406    1.0000 </r>
       <r>    8.6902   -0.0000 </r>
       <r>   10.2718    0.0000 </r>
       <r>   10.6735    0.0000 </r>
       <r>   11.0969    0.0000 </r>
       <r>   12.6353    0.0000 </r>
       <r>   12.9415    0.0000 </r>
      </set>
      <set comment="kpoint 74">
       <r>   -0.9478    1.0000 </r>
       <r>   -0.1398    1.0000 </r>
       <r>    4.5939    1.0000 </r>
       <r>    5.3549    1.0000 </r>
       <r>    5.9869    1.0000 </r>
       <r>    6.7403    1.0000 </r>
       <r>    9.3044    0.0000 </r>
       <r>   10.0179    0.0000 </r>
       <r>   11.0836    0.0000 </r>
       <r>   11.2969    0.0000 </r>
       <r>   11.7841    0.0000 </r>
       <r>   12.0534    0.0000 </r>
      </set>
      <set comment="kpoint 75">
       <r>   -2.2847    1.0000 </r>
       <r>    3.2069    1.0000 </r>
       <r>    3.3127    1.0000 </r>
       <r>    3.3127    1.0000 </r>
       <r>    8.5918   -0.0000 </r>
       <r>    8.5918   -0.0000 </r>
       <r>    8.6813   -0.0000 </r>
       <r>    9.5296    0.0000 </r>
       <r>    9.7516    0.0000 </r>
       <r>    9.7516    0.0000 </r>
       <r>   13.8848    0.0000 </r>
       <r>   14.1242    0.0000 </r>
      </set>
      <set comment="kpoint 76">
       <r>   -1.9133    1.0000 </r>
       <r>    2.1047    1.0000 </r>
       <r>    3.5635    1.0000 </r>
       <r>    3.6689    1.0000 </r>
       <r>    7.4424    1.0000 </r>
       <r>    7.5431    1.0000 </r>
       <r>    8.9583   -0.0000 </r>
       <r>    9.8499    0.0000 </r>
       <r>   10.0818    0.0000 </r>
       <r>   11.5839    0.0000 </r>
       <r>   12.7468    0.0000 </r>
       <r>   13.5246    0.0000 </r>
      </set>
      <set comment="kpoint 77">
       <r>   -1.3949    1.0000 </r>
       <r>    1.0224    1.0000 </r>
       <r>    4.0604    1.0000 </r>
       <r>    4.1650    1.0000 </r>
       <r>    6.4034    1.0000 </r>
       <r>    6.5056    1.0000 </r>
       <r>    9.4492    0.0000 </r>
       <r>   10.3226    0.0000 </r>
       <r>   10.5519    0.0000 </r>
       <r>   11.7268    0.0000 </r>
       <r>   12.6103    0.0000 </r>
       <r>   12.8394    0.0000 </r>
      </set>
      <set comment="kpoint 78">
       <r>   -0.7312    1.0000 </r>
       <r>    0.0756    1.0000 </r>
       <r>    4.6896    1.0000 </r>
       <r>    4.7893    1.0000 </r>
       <r>    5.5051    1.0000 </r>
       <r>    5.6041    1.0000 </r>
       <r>   10.0746    0.0000 </r>
       <r>   10.8345    0.0000 </r>
       <r>   10.9051    0.0000 </r>
       <r>   11.0972    0.0000 </r>
       <r>   11.8228    0.0000 </r>
       <r>   12.0148    0.0000 </r>
      </set>
      <set comment="kpoint 79">
       <r>   -1.9205    1.0000 </r>
       <r>    2.0208    1.0000 </r>
       <r>    3.6620    1.0000 </r>
       <r>    3.6620    1.0000 </r>
       <r>    7.4641    1.0000 </r>
       <r>    7.4641    1.0000 </r>
       <r>    9.0516   -0.0000 </r>
       <r>   10.0753    0.0000 </r>
       <r>   10.0753    0.0000 </r>
       <r>   11.3188    0.0000 </r>
       <r>   12.7678    0.0000 </r>
       <r>   13.6598    0.0000 </r>
      </set>
      <set comment="kpoint 80">
       <r>   -1.5500    1.0000 </r>
       <r>    2.3811    1.0000 </r>
       <r>    2.4577    1.0000 </r>
       <r>    4.0162    1.0000 </r>
       <r>    6.2961    1.0000 </r>
       <r>    7.8183    0.5210 </r>
       <r>    7.8916   -0.0302 </r>
       <r>   10.4226    0.0000 </r>
       <r>   11.6232    0.0000 </r>
       <r>   11.6542    0.0000 </r>
       <r>   11.9121    0.0000 </r>
       <r>   13.9944    0.0000 </r>
      </set>
      <set comment="kpoint 81">
       <r>   -1.0330    1.0000 </r>
       <r>    1.3783    1.0000 </r>
       <r>    2.8838    1.0000 </r>
       <r>    4.5014    1.0000 </r>
       <r>    5.2572    1.0000 </r>
       <r>    6.8505    1.0000 </r>
       <r>    8.3090   -0.0000 </r>
       <r>   10.5974    0.0000 </r>
       <r>   10.9037    0.0000 </r>
       <r>   12.1022    0.0000 </r>
       <r>   13.1924    0.0000 </r>
       <r>   13.8540    0.0000 </r>
      </set>
      <set comment="kpoint 82">
       <r>   -0.3709    1.0000 </r>
       <r>    0.4339    1.0000 </r>
       <r>    3.5267    1.0000 </r>
       <r>    4.3007    1.0000 </r>
       <r>    5.1752    1.0000 </r>
       <r>    5.9410    1.0000 </r>
       <r>    8.9367   -0.0000 </r>
       <r>    9.7003    0.0000 </r>
       <r>   11.5109    0.0000 </r>
       <r>   12.1894    0.0000 </r>
       <r>   12.8539    0.0000 </r>
       <r>   13.5089    0.0000 </r>
      </set>
      <set comment="kpoint 83">
       <r>   -1.4122    1.0000 </r>
       <r>    0.9588    1.0000 </r>
       <r>    4.1486    1.0000 </r>
       <r>    4.1486    1.0000 </r>
       <r>    6.4452    1.0000 </r>
       <r>    6.4452    1.0000 </r>
       <r>    9.5340    0.0000 </r>
       <r>   10.5375    0.0000 </r>
       <r>   10.5375    0.0000 </r>
       <r>   11.7674    0.0000 </r>
       <r>   12.7765    0.0000 </r>
       <r>   12.7765    0.0000 </r>
      </set>
      <set comment="kpoint 84">
       <r>   -1.0430    1.0000 </r>
       <r>    1.3219    1.0000 </r>
       <r>    2.9503    1.0000 </r>
       <r>    4.4924    1.0000 </r>
       <r>    5.2768    1.0000 </r>
       <r>    6.7965    1.0000 </r>
       <r>    8.3730   -0.0000 </r>
       <r>   10.6170    0.0000 </r>
       <r>   10.8945    0.0000 </r>
       <r>   12.3348    0.0000 </r>
       <r>   13.1511    0.0000 </r>
       <r>   13.5745    0.0000 </r>
      </set>
      <set comment="kpoint 85">
       <r>   -0.5278    1.0000 </r>
       <r>    1.8288    1.0000 </r>
       <r>    1.8751    1.0000 </r>
       <r>    4.1821    1.0000 </r>
       <r>    5.0245    1.0000 </r>
       <r>    7.2879    1.0000 </r>
       <r>    7.3324    1.0000 </r>
       <r>    9.5861    0.0000 </r>
       <r>   11.3794    0.0000 </r>
       <r>   13.5102    0.0000 </r>
       <r>   13.5326    0.0000 </r>
       <r>   14.1429    0.0000 </r>
      </set>
      <set comment="kpoint 86">
       <r>    0.1320    1.0000 </r>
       <r>    0.9340    1.0000 </r>
       <r>    2.4777    1.0000 </r>
       <r>    3.2656    1.0000 </r>
       <r>    5.6504    1.0000 </r>
       <r>    6.4230    1.0000 </r>
       <r>    7.9179   -0.0089 </r>
       <r>    8.6849   -0.0000 </r>
       <r>   11.9931    0.0000 </r>
       <r>   12.7271    0.0000 </r>
       <r>   14.1421    0.0000 </r>
       <r>   14.6755    0.0000 </r>
      </set>
      <set comment="kpoint 87">
       <r>   -0.7614    1.0000 </r>
       <r>    0.0299    1.0000 </r>
       <r>    4.7628    1.0000 </r>
       <r>    4.7628    1.0000 </r>
       <r>    5.5629    1.0000 </r>
       <r>    5.5629    1.0000 </r>
       <r>   10.1475    0.0000 </r>
       <r>   10.8926    0.0000 </r>
       <r>   11.0927    0.0000 </r>
       <r>   11.0927    0.0000 </r>
       <r>   11.9868    0.0000 </r>
       <r>   11.9868    0.0000 </r>
      </set>
      <set comment="kpoint 88">
       <r>   -0.3938    1.0000 </r>
       <r>    0.3955    1.0000 </r>
       <r>    3.5803    1.0000 </r>
       <r>    4.3378    1.0000 </r>
       <r>    5.1544    1.0000 </r>
       <r>    5.9044    1.0000 </r>
       <r>    8.9885   -0.0000 </r>
       <r>    9.7373    0.0000 </r>
       <r>   11.4911    0.0000 </r>
       <r>   12.1801    0.0000 </r>
       <r>   13.0607    0.0000 </r>
       <r>   13.7223    0.0000 </r>
      </set>
      <set comment="kpoint 89">
       <r>    0.1191    1.0000 </r>
       <r>    0.9057    1.0000 </r>
       <r>    2.5112    1.0000 </r>
       <r>    3.2835    1.0000 </r>
       <r>    5.6381    1.0000 </r>
       <r>    6.3959    1.0000 </r>
       <r>    7.9502   -0.0007 </r>
       <r>    8.7022   -0.0000 </r>
       <r>   11.9810    0.0000 </r>
       <r>   12.7013    0.0000 </r>
       <r>   14.1763    0.0000 </r>
       <r>   14.8925    0.0000 </r>
      </set>
      <set comment="kpoint 90">
       <r>    0.7760    1.0000 </r>
       <r>    1.5589    1.0000 </r>
       <r>    1.5744    1.0000 </r>
       <r>    2.3529    1.0000 </r>
       <r>    6.2708    1.0000 </r>
       <r>    7.0278    1.0000 </r>
       <r>    7.0427    1.0000 </r>
       <r>    7.7975    0.8356 </r>
       <r>   12.5954    0.0000 </r>
       <r>   13.3168    0.0000 </r>
       <r>   13.3321    0.0000 </r>
       <r>   14.0507    0.0000 </r>
      </set>
      <set comment="kpoint 91">
       <r>   -1.8333    1.0000 </r>
       <r>    2.1824    1.0000 </r>
       <r>    2.1824    1.0000 </r>
       <r>    6.0635    1.0000 </r>
       <r>    6.1292    1.0000 </r>
       <r>    7.5165    1.0000 </r>
       <r>    9.9229    0.0000 </r>
       <r>    9.9229    0.0000 </r>
       <r>   11.1469    0.0000 </r>
       <r>   11.1469    0.0000 </r>
       <r>   11.8399    0.0000 </r>
       <r>   11.8399    0.0000 </r>
      </set>
      <set comment="kpoint 92">
       <r>   -1.3152    1.0000 </r>
       <r>    1.1007    1.0000 </r>
       <r>    2.6859    1.0000 </r>
       <r>    5.0298    1.0000 </r>
       <r>    6.6110    1.0000 </r>
       <r>    7.9994   -0.0000 </r>
       <r>    8.8866   -0.0000 </r>
       <r>   10.2697    0.0000 </r>
       <r>   10.4064    0.0000 </r>
       <r>   11.7572    0.0000 </r>
       <r>   12.1986    0.0000 </r>
       <r>   12.6826    0.0000 </r>
      </set>
      <set comment="kpoint 93">
       <r>   -0.6519    1.0000 </r>
       <r>    0.1544    1.0000 </r>
       <r>    3.3305    1.0000 </r>
       <r>    4.1135    1.0000 </r>
       <r>    7.2309    1.0000 </r>
       <r>    7.9894   -0.0000 </r>
       <r>    8.6323   -0.0000 </r>
       <r>    9.3960    0.0000 </r>
       <r>   11.0277    0.0000 </r>
       <r>   11.7867    0.0000 </r>
       <r>   12.3848    0.0000 </r>
       <r>   12.7863    0.0000 </r>
      </set>
      <set comment="kpoint 94">
       <r>   -1.7606    1.0000 </r>
       <r>    2.2530    1.0000 </r>
       <r>    2.2530    1.0000 </r>
       <r>    5.1796    1.0000 </r>
       <r>    6.1694    1.0000 </r>
       <r>    8.5558   -0.0000 </r>
       <r>    9.0266   -0.0000 </r>
       <r>    9.0266   -0.0000 </r>
       <r>   11.6511    0.0000 </r>
       <r>   11.6511    0.0000 </r>
       <r>   12.4075    0.0000 </r>
       <r>   12.4075    0.0000 </r>
      </set>
      <set comment="kpoint 95">
       <r>   -1.2428    1.0000 </r>
       <r>    1.1719    1.0000 </r>
       <r>    2.7562    1.0000 </r>
       <r>    5.0859    1.0000 </r>
       <r>    5.7077    1.0000 </r>
       <r>    7.9924   -0.0000 </r>
       <r>    9.0419   -0.0000 </r>
       <r>    9.5159    0.0000 </r>
       <r>   11.2590    0.0000 </r>
       <r>   11.7930    0.0000 </r>
       <r>   12.2895    0.0000 </r>
       <r>   12.7406    0.0000 </r>
      </set>
      <set comment="kpoint 96">
       <r>   -0.5798    1.0000 </r>
       <r>    0.2261    1.0000 </r>
       <r>    3.4004    1.0000 </r>
       <r>    4.1820    1.0000 </r>
       <r>    6.3231    1.0000 </r>
       <r>    7.0894    1.0000 </r>
       <r>    9.6654    0.0000 </r>
       <r>   10.1404    0.0000 </r>
       <r>   10.4155    0.0000 </r>
       <r>   10.9001    0.0000 </r>
       <r>   12.8565    0.0000 </r>
       <r>   13.3768    0.0000 </r>
      </set>
      <set comment="kpoint 97">
       <r>   -1.5428    1.0000 </r>
       <r>    2.4647    1.0000 </r>
       <r>    2.4647    1.0000 </r>
       <r>    3.9184    1.0000 </r>
       <r>    6.3765    1.0000 </r>
       <r>    7.7966    0.8463 </r>
       <r>    7.7966    0.8463 </r>
       <r>   10.1958    0.0000 </r>
       <r>   11.6022    0.0000 </r>
       <r>   11.9178    0.0000 </r>
       <r>   11.9178    0.0000 </r>
       <r>   13.8607    0.0000 </r>
      </set>
      <set comment="kpoint 98">
       <r>   -1.0258    1.0000 </r>
       <r>    1.3854    1.0000 </r>
       <r>    2.9670    1.0000 </r>
       <r>    4.4072    1.0000 </r>
       <r>    5.3352    1.0000 </r>
[...]
       <r>    0.9945    1.0000 </r>
       <r>    1.7763    1.0000 </r>
       <r>    3.3645    1.0000 </r>
       <r>    3.3645    1.0000 </r>
       <r>    4.1612    1.0000 </r>
       <r>    4.1612    1.0000 </r>
       <r>    5.7273    1.0000 </r>
       <r>    6.4879    1.0000 </r>
       <r>   15.6812    0.0000 </r>
       <r>   15.6812    0.0000 </r>
       <r>   16.3218    0.0000 </r>
       <r>   16.3219    0.0000 </r>
      </set>
      <set comment="kpoint 120">
       <r>    1.6474    1.0000 </r>
       <r>    2.4251    1.0000 </r>
       <r>    2.4405    1.0000 </r>
       <r>    3.2083    1.0000 </r>
       <r>    4.0330    1.0000 </r>
       <r>    4.7937    1.0000 </r>
       <r>    4.8088    1.0000 </r>
       <r>    5.5722    1.0000 </r>
       <r>   16.2686    0.0000 </r>
       <r>   16.8697    0.0000 </r>
       <r>   16.8998    0.0000 </r>
       <r>   17.3554    0.0000 </r>
      </set>
      <set comment="kpoint 121">
       <r>    0.5199    1.0000 </r>
       <r>    1.3197    1.0000 </r>
       <r>    1.3197    1.0000 </r>
       <r>    2.1150    1.0000 </r>
       <r>    8.3341   -0.0000 </r>
       <r>    9.0934   -0.0000 </r>
       <r>    9.0934   -0.0000 </r>
       <r>    9.7626    0.0000 </r>
       <r>    9.8528    0.0000 </r>
       <r>   10.5236    0.0000 </r>
       <r>   10.5236    0.0000 </r>
       <r>   11.2786    0.0000 </r>
      </set>
      <set comment="kpoint 122">
       <r>    0.5914    1.0000 </r>
       <r>    1.3908    1.0000 </r>
       <r>    1.3908    1.0000 </r>
       <r>    2.1858    1.0000 </r>
       <r>    7.4396    1.0000 </r>
       <r>    8.2056   -0.0000 </r>
       <r>    8.2056   -0.0000 </r>
       <r>    8.9700   -0.0000 </r>
       <r>   10.7804    0.0000 </r>
       <r>   11.5324    0.0000 </r>
       <r>   11.5324    0.0000 </r>
       <r>   12.2801    0.0000 </r>
      </set>
      <set comment="kpoint 123">
       <r>    0.8058    1.0000 </r>
       <r>    1.6040    1.0000 </r>
       <r>    1.6040    1.0000 </r>
       <r>    2.3977    1.0000 </r>
       <r>    6.1961    1.0000 </r>
       <r>    6.9684    1.0000 </r>
       <r>    6.9684    1.0000 </r>
       <r>    7.7385    1.0221 </r>
       <r>   12.3910    0.0000 </r>
       <r>   13.1284    0.0000 </r>
       <r>   13.1284    0.0000 </r>
       <r>   13.8625    0.0000 </r>
      </set>
      <set comment="kpoint 124">
       <r>    1.1624    1.0000 </r>
       <r>    1.9586    1.0000 </r>
       <r>    1.9586    1.0000 </r>
       <r>    2.7496    1.0000 </r>
       <r>    5.0350    1.0000 </r>
       <r>    5.8119    1.0000 </r>
       <r>    5.8119    1.0000 </r>
       <r>    6.5868    1.0000 </r>
       <r>   14.1545    0.0000 </r>
       <r>   14.8654    0.0000 </r>
       <r>   14.8654    0.0000 </r>
       <r>   15.5752    0.0000 </r>
      </set>
      <set comment="kpoint 125">
       <r>    1.6601    1.0000 </r>
       <r>    2.4530    1.0000 </r>
       <r>    2.4530    1.0000 </r>
       <r>    3.2353    1.0000 </r>
       <r>    4.0007    1.0000 </r>
       <r>    4.7759    1.0000 </r>
       <r>    4.7759    1.0000 </r>
       <r>    5.5545    1.0000 </r>
       <r>   16.0073    0.0000 </r>
       <r>   16.6490    0.0000 </r>
       <r>   16.6490    0.0000 </r>
       <r>   17.3105    0.0000 </r>
      </set>
      <set comment="kpoint 126">
       <r>    2.2969    1.0000 </r>
       <r>    3.0662    1.0000 </r>
       <r>    3.0811    1.0000 </r>
       <r>    3.0811    1.0000 </r>
       <r>    3.8757    1.0000 </r>
       <r>    3.8757    1.0000 </r>
       <r>    3.8906    1.0000 </r>
       <r>    4.6526    1.0000 </r>
       <r>   17.8683    0.0000 </r>
       <r>   18.1363    0.0000 </r>
       <r>   18.1384    0.0000 </r>
       <r>   18.1482    0.0000 </r>
      </set>
     </set>
    </set>
   </array>
  </eigenvalues>
  <separator name="orbital magnetization" >
   <v name="MAGDIPOLOUT">      0.00000000      0.00000000      0.00000000</v>
  </separator>
  <dos>
   <i name="efermi">      7.81953891 </i>
   <total>
    <array>
     <dimension dim="1">gridpoints</dimension>
     <dimension dim="2">spin</dimension>
     <field>energy</field>
     <field>total</field>
     <field>integrated</field>
     <set>
      <set comment="spin 1">
       <r>    -4.2403     0.0000     0.0000 </r>
       <r>    -4.1621     0.0000     0.0000 </r>
       <r>    -4.0839     0.0000     0.0000 </r>
       <r>    -4.0057     0.0000     0.0000 </r>
       <r>    -3.9275     0.0000     0.0000 </r>
       <r>    -3.8493     0.0000     0.0000 </r>
       <r>    -3.7712     0.0000     0.0000 </r>
       <r>    -3.6930     0.0000     0.0000 </r>
       <r>    -3.6148    -0.0000    -0.0000 </r>
       <r>    -3.5366    -0.0000    -0.0000 </r>
       <r>    -3.4584    -0.0000    -0.0000 </r>
       <r>    -3.3803    -0.0000    -0.0000 </r>
       <r>    -3.3021    -0.0000    -0.0000 </r>
       <r>    -3.2239    -0.0006    -0.0000 </r>
       <r>    -3.1457     0.0160     0.0012 </r>
       <r>    -3.0675     0.1120     0.0100 </r>
       <r>    -2.9893     0.2335     0.0282 </r>
       <r>    -2.9112     0.1607     0.0408 </r>
       <r>    -2.8330     0.1479     0.0523 </r>
       <r>    -2.7548     0.4902     0.0907 </r>
       <r>    -2.6766     0.4083     0.1226 </r>
       <r>    -2.5984     0.0320     0.1251 </r>
       <r>    -2.5203     0.3483     0.1523 </r>
       <r>    -2.4421     0.5853     0.1981 </r>
       <r>    -2.3639     0.4928     0.2366 </r>
       <r>    -2.2857     0.3351     0.2628 </r>
       <r>    -2.2075     0.3099     0.2870 </r>
       <r>    -2.1293     0.8170     0.3509 </r>
       <r>    -2.0512     0.3488     0.3782 </r>
       <r>    -1.9730     0.0455     0.3817 </r>
       <r>    -1.8948     0.7906     0.4436 </r>
       <r>    -1.8166     0.7817     0.5047 </r>
       <r>    -1.7384     0.5267     0.5458 </r>
       <r>    -1.6603     0.4953     0.5846 </r>
       <r>    -1.5821     0.9177     0.6563 </r>
       <r>    -1.5039     0.4670     0.6928 </r>
       <r>    -1.4257     0.0589     0.6974 </r>
       <r>    -1.3475     0.5132     0.7376 </r>
       <r>    -1.2693     0.8424     0.8034 </r>
       <r>    -1.1912     1.2536     0.9014 </r>
       <r>    -1.1130     0.3533     0.9291 </r>
       <r>    -1.0348     0.6627     0.9809 </r>
       <r>    -0.9566     1.2789     1.0808 </r>
       <r>    -0.8784     0.3917     1.1115 </r>
       <r>    -0.8002     0.1300     1.1216 </r>
       <r>    -0.7221     0.7857     1.1831 </r>
       <r>    -0.6439     1.0131     1.2623 </r>
       <r>    -0.5657     0.9582     1.3372 </r>
       <r>    -0.4875     0.6861     1.3908 </r>
       <r>    -0.4093     0.5601     1.4346 </r>
       <r>    -0.3312     1.2349     1.5312 </r>
       <r>    -0.2530     0.1267     1.5411 </r>
       <r>    -0.1748     0.8467     1.6073 </r>
       <r>    -0.0966     1.7043     1.7405 </r>
       <r>    -0.0184     0.7896     1.8023 </r>
       <r>     0.0598     0.4610     1.8383 </r>
       <r>     0.1379     1.0439     1.9199 </r>
       <r>     0.2161     1.1995     2.0137 </r>
       <r>     0.2943     0.3342     2.0398 </r>
       <r>     0.3725     0.1517     2.0517 </r>
       <r>     0.4507     0.9043     2.1224 </r>
       <r>     0.5288     1.6652     2.2526 </r>
       <r>     0.6070     0.9535     2.3271 </r>
       <r>     0.6852     0.7369     2.3847 </r>
       <r>     0.7634     1.5542     2.5062 </r>
       <r>     0.8416     1.4188     2.6172 </r>
       <r>     0.9198     0.3459     2.6442 </r>
       <r>     0.9979     1.0095     2.7231 </r>
       <r>     1.0761     0.7686     2.7832 </r>
       <r>     1.1543     1.0027     2.8616 </r>
       <r>     1.2325     0.5986     2.9084 </r>
       <r>     1.3107     1.1206     2.9960 </r>
       <r>     1.3888     1.7103     3.1297 </r>
       <r>     1.4670     0.4252     3.1630 </r>
       <r>     1.5452     0.3613     3.1912 </r>
       <r>     1.6234     1.8147     3.3331 </r>
       <r>     1.7016     1.6561     3.4626 </r>
       <r>     1.7798     0.7168     3.5186 </r>
       <r>     1.8579     1.3097     3.6210 </r>
       <r>     1.9361     1.5919     3.7455 </r>
       <r>     2.0143     0.5386     3.7876 </r>
       <r>     2.0925     0.3831     3.8175 </r>
       <r>     2.1707     1.0988     3.9034 </r>
       <r>     2.2489     1.8396     4.0473 </r>
       <r>     2.3270     1.4706     4.1622 </r>
       <r>     2.4052     0.8562     4.2292 </r>
       <r>     2.4834     1.6807     4.3606 </r>
       <r>     2.5616     0.7957     4.4228 </r>
       <r>     2.6398     0.2309     4.4408 </r>
       <r>     2.7179     1.1963     4.5344 </r>
       <r>     2.7961     1.5842     4.6582 </r>
       <r>     2.8743     1.2618     4.7569 </r>
       <r>     2.9525     1.2262     4.8527 </r>
       <r>     3.0307     1.1844     4.9453 </r>
       <r>     3.1089     1.7880     5.0851 </r>
       <r>     3.1870     0.5123     5.1252 </r>
       <r>     3.2652     1.1526     5.2153 </r>
       <r>     3.3434     2.7207     5.4280 </r>
       <r>     3.4216     1.9218     5.5783 </r>
       <r>     3.4998     0.6128     5.6262 </r>
       <r>     3.5779     0.6632     5.6780 </r>
       <r>     3.6561     1.4209     5.7891 </r>
       <r>     3.7343     0.7585     5.8484 </r>
       <r>     3.8125     0.4039     5.8800 </r>
       <r>     3.8907     1.2016     5.9739 </r>
       <r>     3.9689     1.8627     6.1196 </r>
       <r>     4.0470     1.6118     6.2456 </r>
       <r>     4.1252     1.4703     6.3605 </r>
       <r>     4.2034     2.5861     6.5627 </r>
       <r>     4.2816     0.7421     6.6207 </r>
       <r>     4.3598     0.9469     6.6948 </r>
       <r>     4.4380     1.6869     6.8267 </r>
       <r>     4.5161     1.7504     6.9635 </r>
       <r>     4.5943     1.2426     7.0607 </r>
       <r>     4.6725     1.2471     7.1582 </r>
       <r>     4.7507     1.5218     7.2771 </r>
       <r>     4.8289     2.0541     7.4377 </r>
       <r>     4.9070     0.2282     7.4556 </r>
       <r>     4.9852     1.0905     7.5408 </r>
       <r>     5.0634     1.8282     7.6838 </r>
       <r>     5.1416     1.7467     7.8203 </r>
       <r>     5.2198     2.0498     7.9806 </r>
       <r>     5.2980     2.4372     8.1711 </r>
       <r>     5.3761     1.5638     8.2934 </r>
       <r>     5.4543     0.7092     8.3488 </r>
       <r>     5.5325     0.5411     8.3911 </r>
       <r>     5.6107     1.9029     8.5399 </r>
       <r>     5.6889     1.7562     8.6772 </r>
       <r>     5.7670     1.3061     8.7793 </r>
       <r>     5.8452     1.8588     8.9247 </r>
       <r>     5.9234     1.5480     9.0457 </r>
       <r>     6.0016     0.7754     9.1063 </r>
       <r>     6.0798     0.7765     9.1670 </r>
       <r>     6.1580     1.9657     9.3207 </r>
       <r>     6.2361     1.5034     9.4382 </r>
       <r>     6.3143     1.7139     9.5722 </r>
       <r>     6.3925     1.2872     9.6729 </r>
       <r>     6.4707     2.2995     9.8526 </r>
       <r>     6.5489     1.2873     9.9533 </r>
       <r>     6.6270     1.0391    10.0345 </r>
       <r>     6.7052     1.4339    10.1466 </r>
       <r>     6.7834     2.2854    10.3253 </r>
       <r>     6.8616     1.6967    10.4580 </r>
       <r>     6.9398     1.2292    10.5541 </r>
       <r>     7.0180     1.2353    10.6506 </r>
       <r>     7.0961     1.1544    10.7409 </r>
       <r>     7.1743     0.6170    10.7891 </r>
       <r>     7.2525     1.9258    10.9397 </r>
       <r>     7.3307     1.3946    11.0487 </r>
       <r>     7.4089     0.9385    11.1221 </r>
       <r>     7.4871     1.9763    11.2766 </r>
       <r>     7.5652     2.9361    11.5062 </r>
       <r>     7.6434     1.3952    11.6152 </r>
       <r>     7.7216     1.7610    11.7529 </r>
       <r>     7.7998     2.4279    11.9427 </r>
       <r>     7.8780     2.0215    12.1008 </r>
       <r>     7.9561     1.4444    12.2137 </r>
       <r>     8.0343     1.0564    12.2963 </r>
       <r>     8.1125     1.5988    12.4213 </r>
       <r>     8.1907     0.6381    12.4712 </r>
       <r>     8.2689     1.1520    12.5613 </r>
       <r>     8.3471     1.5381    12.6815 </r>
       <r>     8.4252     1.5008    12.7988 </r>
       <r>     8.5034     2.2862    12.9776 </r>
       <r>     8.5816     2.4383    13.1682 </r>
       <r>     8.6598     2.3922    13.3552 </r>
       <r>     8.7380     2.6486    13.5623 </r>
       <r>     8.8161     0.7632    13.6220 </r>
       <r>     8.8943     0.6727    13.6746 </r>
       <r>     8.9725     1.4184    13.7855 </r>
       <r>     9.0507     1.9824    13.9405 </r>
       <r>     9.1289     1.4244    14.0518 </r>
       <r>     9.2071     2.2128    14.2248 </r>
       <r>     9.2852     1.8822    14.3720 </r>
       <r>     9.3634     0.8182    14.4359 </r>
       <r>     9.4416     1.6445    14.5645 </r>
       <r>     9.5198     2.5234    14.7618 </r>
       <r>     9.5980     1.8613    14.9073 </r>
       <r>     9.6761     1.7505    15.0442 </r>
       <r>     9.7543     2.2624    15.2211 </r>
       <r>     9.8325     1.1589    15.3117 </r>
       <r>     9.9107     2.5198    15.5087 </r>
       <r>     9.9889     1.8748    15.6552 </r>
       <r>    10.0671     2.1783    15.8255 </r>
       <r>    10.1452     1.9367    15.9769 </r>
       <r>    10.2234     2.5562    16.1768 </r>
       <r>    10.3016     1.2970    16.2782 </r>
       <r>    10.3798     0.9966    16.3561 </r>
       <r>    10.4580     1.1772    16.4482 </r>
       <r>    10.5362     1.1817    16.5405 </r>
       <r>    10.6143     2.0299    16.6992 </r>
       <r>    10.6925     1.3198    16.8024 </r>
       <r>    10.7707     1.4042    16.9122 </r>
       <r>    10.8489     2.1584    17.0810 </r>
       <r>    10.9271     3.0692    17.3209 </r>
       <r>    11.0052     2.4903    17.5156 </r>
       <r>    11.0834     2.3349    17.6982 </r>
       <r>    11.1616     3.0534    17.9369 </r>
       <r>    11.2398     1.0293    18.0174 </r>
       <r>    11.3180     1.8768    18.1641 </r>
       <r>    11.3962     1.6583    18.2937 </r>
       <r>    11.4743     1.3101    18.3962 </r>
       <r>    11.5525     1.4497    18.5095 </r>
       <r>    11.6307     1.6104    18.6354 </r>
       <r>    11.7089     1.8675    18.7814 </r>
       <r>    11.7871     2.4429    18.9724 </r>
       <r>    11.8652     2.6801    19.1819 </r>
       <r>    11.9434     2.4193    19.3711 </r>
       <r>    12.0216     2.9939    19.6052 </r>
       <r>    12.0998     2.1239    19.7712 </r>
       <r>    12.1780     1.5249    19.8904 </r>
       <r>    12.2562     1.6139    20.0166 </r>
       <r>    12.3343     1.8216    20.1590 </r>
       <r>    12.4125     1.4633    20.2734 </r>
       <r>    12.4907     1.3510    20.3790 </r>
       <r>    12.5689     2.4358    20.5695 </r>
       <r>    12.6471     2.0468    20.7295 </r>
       <r>    12.7253     1.3644    20.8362 </r>
       <r>    12.8034     2.5936    21.0390 </r>
       <r>    12.8816     2.4490    21.2304 </r>
       <r>    12.9598     1.6846    21.3621 </r>
       <r>    13.0380     2.2048    21.5345 </r>
       <r>    13.1162     1.9162    21.6843 </r>
       <r>    13.1943     1.8424    21.8284 </r>
       <r>    13.2725     1.0079    21.9072 </r>
       <r>    13.3507     2.6878    22.1173 </r>
       <r>    13.4289     1.0026    22.1957 </r>
       <r>    13.5071     0.8696    22.2637 </r>
       <r>    13.5853     2.1638    22.4328 </r>
       <r>    13.6634     0.2955    22.4560 </r>
       <r>    13.7416     0.3429    22.4828 </r>
       <r>    13.8198     0.9997    22.5609 </r>
       <r>    13.8980     1.4311    22.6728 </r>
       <r>    13.9762     0.7351    22.7303 </r>
       <r>    14.0543     0.7100    22.7858 </r>
       <r>    14.1325     0.9999    22.8640 </r>
       <r>    14.2107     1.0683    22.9475 </r>
       <r>    14.2889     0.7957    23.0097 </r>
       <r>    14.3671     0.3404    23.0363 </r>
       <r>    14.4453     0.8293    23.1011 </r>
       <r>    14.5234     0.5180    23.1416 </r>
       <r>    14.6016     0.0262    23.1437 </r>
       <r>    14.6798     1.0682    23.2272 </r>
       <r>    14.7580     0.4581    23.2630 </r>
       <r>    14.8362     0.2083    23.2793 </r>
       <r>    14.9143     0.7102    23.3348 </r>
       <r>    14.9925     0.1553    23.3470 </r>
       <r>    15.0707     0.5212    23.3877 </r>
       <r>    15.1489     0.9983    23.4658 </r>
       <r>    15.2271     0.0489    23.4696 </r>
       <r>    15.3053     0.7416    23.5276 </r>
       <r>    15.3834     0.2128    23.5442 </r>
       <r>    15.4616     0.2879    23.5667 </r>
       <r>    15.5398     0.0085    23.5674 </r>
       <r>    15.6180     0.2293    23.5853 </r>
       <r>    15.6962     0.9952    23.6631 </r>
       <r>    15.7744     0.2393    23.6818 </r>
       <r>    15.8525     0.3537    23.7095 </r>
       <r>    15.9307     0.1852    23.7240 </r>
       <r>    16.0089     0.0740    23.7297 </r>
       <r>    16.0871     0.1071    23.7381 </r>
       <r>    16.1653     0.2803    23.7600 </r>
       <r>    16.2434     0.0261    23.7621 </r>
       <r>    16.3216     0.4309    23.7957 </r>
       <r>    16.3998     0.4754    23.8329 </r>
       <r>    16.4780     0.1450    23.8442 </r>
       <r>    16.5562    -0.0104    23.8434 </r>
       <r>    16.6344     0.0848    23.8501 </r>
       <r>    16.7125     0.2372    23.8686 </r>
       <r>    16.7907    -0.0194    23.8671 </r>
       <r>    16.8689     0.1802    23.8812 </r>
       <r>    16.9471     0.4570    23.9169 </r>
       <r>    17.0253    -0.0132    23.9159 </r>
       <r>    17.1034    -0.0004    23.9159 </r>
       <r>    17.1816    -0.0001    23.9158 </r>
       <r>    17.2598    -0.0072    23.9153 </r>
       <r>    17.3380     0.2142    23.9320 </r>
       <r>    17.4162     0.2662    23.9528 </r>
       <r>    17.4944    -0.0116    23.9519 </r>
       <r>    17.5725    -0.0001    23.9519 </r>
       <r>    17.6507    -0.0000    23.9519 </r>
       <r>    17.7289    -0.0000    23.9519 </r>
       <r>    17.8071    -0.0054    23.9515 </r>
       <r>    17.8853     0.1239    23.9612 </r>
       <r>    17.9634     0.0370    23.9641 </r>
       <r>    18.0416    -0.0057    23.9636 </r>
       <r>    18.1198     0.0870    23.9704 </r>
       <r>    18.1980     0.3929    24.0011 </r>
       <r>    18.2762    -0.0144    24.0000 </r>
       <r>    18.3544    -0.0002    24.0000 </r>
       <r>    18.4325    -0.0000    24.0000 </r>
       <r>    18.5107    -0.0000    24.0000 </r>
       <r>    18.5889     0.0000    24.0000 </r>
       <r>    18.6671     0.0000    24.0000 </r>
       <r>    18.7453     0.0000    24.0000 </r>
       <r>    18.8235     0.0000    24.0000 </r>
       <r>    18.9016     0.0000    24.0000 </r>
       <r>    18.9798     0.0000    24.0000 </r>
       <r>    19.0580     0.0000    24.0000 </r>
       <r>    19.1362     0.0000    24.0000 </r>
       <r>    19.2144     0.0000    24.0000 </r>
      </set>
     </set>
    </array>
   </total>
  </dos>
 </calculation>
 <structure name="finalpos" >
  <crystal>
   <varray name="basis" >
    <v>       4.04336400       0.00000000       0.00000000 </v>
    <v>       0.00000000       4.08359800       0.00000000 </v>
    <v>       0.00000000       0.00000000       4.04336400 </v>
   </varray>
   <i name="volume">     66.76189610 </i>
   <varray name="rec_basis" >
    <v>       0.24731882       0.00000000       0.00000000 </v>
    <v>       0.00000000       0.24488209       0.00000000 </v>
    <v>       0.00000000       0.00000000       0.24731882 </v>
   </varray>
  </crystal>
  <varray name="positions" >
   <v>       0.00000000       0.00000000       0.00000000 </v>
   <v>       0.00000000       0.50000000       0.50000000 </v>
   <v>       0.50000000       0.00000000       0.50000000 </v>
   <v>       0.50000000       0.50000000       0.00000000 </v>
  </varray>
 </structure>
</modeling>
