<?xml version="1.0" encoding="ISO-8859-1"?>
<modeling>
 <generator>
  <i name="program" type="string">vasp </i>
  <i name="version" type="string">5.4.4.18Apr17-6-g9f103f2a35  </i>
  <i name="subversion" type="string">(build Jun 11 2017 21:30:58) complex            parallel </i>
  <i name="platform" type="string">LinuxIFC </i>
  <i name="date" type="string">2022 07 07 </i>
  <i name="time" type="string">18:38:14 </i>
 </generator>
 <incar>
  <i type="string" name="PREC">accurate</i>
  <i type="string" name="ALGO"> Normal</i>
  <i type="logical" name="ADDGRID"> T  </i>
  <i type="int" name="NELM">   100</i>
  <i type="int" name="NELMIN">     4</i>
  <i type="int" name="IBRION">    -1</i>
  <i name="EDIFF">      0.00005000</i>
  <i name="ENCUT">    520.00000000</i>
  <i type="logical" name="LREAL"> F  </i>
  <i type="int" name="ISMEAR">     1</i>
  <i name="SIGMA">      0.05000000</i>
  <i type="logical" name="LWAVE"> F  </i>
  <i type="logical" name="LCHARG"> F  </i>
  <i type="logical" name="LASPH"> T  </i>
  <v type="int" name="KPOINT_BSE">    -1     0     0     0</v>
  <i type="int" name="NELM">   100</i>
  <i type="logical" name="LASPH"> T  </i>
 </incar>
 <structure name="primitive_cell" >
  <crystal>
   <varray name="basis" >
    <v>       2.00136300       0.00000000      -2.02168200 </v>
    <v>       2.00136300       0.00000000       2.02168200 </v>
    <v>      -2.00136300      -2.02168200       0.00000000 </v>
   </varray>
   <i name="volume">     16.35993414 </i>
   <varray name="rec_basis" >
    <v>       0.24982974      -0.24731882      -0.24731882 </v>
    <v>       0.24982974      -0.24731882       0.24731882 </v>
    <v>       0.00000000      -0.49463763       0.00000000 </v>
   </varray>
  </crystal>
  <varray name="positions" >
   <v>       0.00000000       0.00000000       0.00000000 </v>
  </varray>
 </structure>
 <varray name="primitive_index" >
  <v type="int" >        1 </v>
 </varray>
 <kpoints>
  <generation param="Gamma">
   <v type="int" name="divisions">      11       11       11 </v>
   <v name="usershift">      0.00000000       0.00000000       0.00000000 </v>
   <v name="genvec1">      0.09090909       0.00000000       0.00000000 </v>
   <v name="genvec2">      0.00000000       0.09090909       0.00000000 </v>
   <v name="genvec3">      0.00000000       0.00000000       0.09090909 </v>
   <v name="shift">      0.00000000       0.00000000       0.00000000 </v>
  </generation>
  <varray name="kpointlist" >
   <v>       0.00000000       0.00000000       0.00000000 </v>
   <v>       0.09090909       0.00000000       0.00000000 </v>
   <v>       0.18181818       0.00000000       0.00000000 </v>
   <v>       0.27272727       0.00000000       0.00000000 </v>
   <v>       0.36363636       0.00000000       0.00000000 </v>
   <v>       0.45454545       0.00000000       0.00000000 </v>
   <v>       0.00000000       0.09090909       0.00000000 </v>
   <v>       0.09090909       0.09090909       0.00000000 </v>
   <v>       0.18181818       0.09090909       0.00000000 </v>
   <v>       0.27272727       0.09090909       0.00000000 </v>
   <v>       0.36363636       0.09090909       0.00000000 </v>
   <v>       0.45454545       0.09090909       0.00000000 </v>
   <v>       0.00000000       0.18181818       0.00000000 </v>
   <v>       0.09090909       0.18181818       0.00000000 </v>
   <v>       0.18181818       0.18181818       0.00000000 </v>
   <v>       0.27272727       0.18181818       0.00000000 </v>
   <v>       0.36363636       0.18181818       0.00000000 </v>
   <v>       0.45454545       0.18181818       0.00000000 </v>
   <v>       0.00000000       0.27272727       0.00000000 </v>
   <v>       0.09090909       0.27272727       0.00000000 </v>
   <v>       0.18181818       0.27272727       0.00000000 </v>
   <v>       0.27272727       0.27272727       0.00000000 </v>
   <v>       0.36363636       0.27272727       0.00000000 </v>
   <v>       0.45454545       0.27272727       0.00000000 </v>
   <v>       0.00000000       0.36363636       0.00000000 </v>
   <v>       0.09090909       0.36363636       0.00000000 </v>
   <v>       0.18181818       0.36363636       0.00000000 </v>
   <v>       0.27272727       0.36363636       0.00000000 </v>
   <v>       0.36363636       0.36363636       0.00000000 </v>
   <v>       0.45454545       0.36363636       0.00000000 </v>
   <v>       0.00000000       0.45454545       0.00000000 </v>
   <v>       0.09090909       0.45454545       0.00000000 </v>
   <v>       0.18181818       0.45454545       0.00000000 </v>
   <v>       0.27272727       0.45454545       0.00000000 </v>
   <v>       0.36363636       0.45454545       0.00000000 </v>
   <v>       0.45454545       0.45454545       0.00000000 </v>
   <v>       0.00000000       0.09090909       0.09090909 </v>
   <v>       0.09090909       0.09090909       0.09090909 </v>
   <v>       0.18181818       0.09090909       0.09090909 </v>
   <v>       0.27272727       0.09090909       0.09090909 </v>
   <v>       0.36363636       0.09090909       0.09090909 </v>
   <v>       0.45454545       0.09090909       0.09090909 </v>
   <v>       0.00000000       0.18181818       0.09090909 </v>
   <v>       0.09090909       0.18181818       0.09090909 </v>
   <v>       0.18181818       0.18181818       0.09090909 </v>
   <v>       0.27272727       0.18181818       0.09090909 </v>
   <v>       0.36363636       0.18181818       0.09090909 </v>
   <v>       0.45454545       0.18181818       0.09090909 </v>
   <v>       0.00000000       0.27272727       0.09090909 </v>
   <v>       0.09090909       0.27272727       0.09090909 </v>
   <v>       0.18181818       0.27272727       0.09090909 </v>
   <v>       0.27272727       0.27272727       0.09090909 </v>
   <v>       0.36363636       0.27272727       0.09090909 </v>
   <v>       0.45454545       0.27272727       0.09090909 </v>
   <v>       0.00000000       0.36363636       0.09090909 </v>
   <v>       0.09090909       0.36363636       0.09090909 </v>
   <v>       0.18181818       0.36363636       0.09090909 </v>
   <v>       0.27272727       0.36363636       0.09090909 </v>
   <v>       0.36363636       0.36363636       0.09090909 </v>
   <v>       0.45454545       0.36363636       0.09090909 </v>
   <v>       0.00000000       0.45454545       0.09090909 </v>
   <v>       0.09090909       0.45454545       0.09090909 </v>
   <v>       0.18181818       0.45454545       0.09090909 </v>
   <v>       0.27272727       0.45454545       0.09090909 </v>
   <v>       0.36363636       0.45454545       0.09090909 </v>
   <v>       0.45454545       0.45454545       0.09090909 </v>
   <v>       0.00000000       0.18181818       0.18181818 </v>
   <v>       0.09090909       0.18181818       0.18181818 </v>
   <v>       0.18181818       0.18181818       0.18181818 </v>
   <v>       0.27272727       0.18181818       0.18181818 </v>
   <v>       0.36363636       0.18181818       0.18181818 </v>
   <v>       0.45454545       0.18181818       0.18181818 </v>
   <v>       0.00000000       0.27272727       0.18181818 </v>
   <v>       0.09090909       0.27272727       0.18181818 </v>
   <v>       0.18181818       0.27272727       0.18181818 </v>
   <v>       0.27272727       0.27272727       0.18181818 </v>
   <v>       0.36363636       0.27272727       0.18181818 </v>
   <v>       0.45454545       0.27272727       0.18181818 </v>
   <v>       0.00000000       0.36363636       0.18181818 </v>
   <v>       0.09090909       0.36363636       0.18181818 </v>
   <v>       0.18181818       0.36363636       0.18181818 </v>
   <v>       0.27272727       0.36363636       0.18181818 </v>
   <v>       0.36363636       0.36363636       0.18181818 </v>
   <v>       0.45454545       0.36363636       0.18181818 </v>
   <v>       0.00000000       0.45454545       0.18181818 </v>
   <v>       0.09090909       0.45454545       0.18181818 </v>
   <v>       0.18181818       0.45454545       0.18181818 </v>
   <v>       0.27272727       0.45454545       0.18181818 </v>
   <v>       0.36363636       0.45454545       0.18181818 </v>
   <v>       0.45454545       0.45454545       0.18181818 </v>
   <v>       0.00000000       0.27272727       0.27272727 </v>
   <v>       0.09090909       0.27272727       0.27272727 </v>
   <v>       0.18181818       0.27272727       0.27272727 </v>
   <v>       0.27272727       0.27272727       0.27272727 </v>
   <v>       0.36363636       0.27272727       0.27272727 </v>
   <v>       0.45454545       0.27272727       0.27272727 </v>
   <v>       0.00000000       0.36363636       0.27272727 </v>
   <v>       0.09090909       0.36363636       0.27272727 </v>
   <v>       0.18181818       0.36363636       0.27272727 </v>
   <v>       0.27272727       0.36363636       0.27272727 </v>
   <v>       0.36363636       0.36363636       0.27272727 </v>
   <v>       0.45454545       0.36363636       0.27272727 </v>
   <v>       0.00000000       0.45454545       0.27272727 </v>
   <v>       0.09090909       0.45454545       0.27272727 </v>
   <v>       0.18181818       0.45454545       0.27272727 </v>
   <v>       0.27272727       0.45454545       0.27272727 </v>
   <v>       0.36363636       0.45454545       0.27272727 </v>
   <v>       0.45454545       0.45454545       0.27272727 </v>
   <v>       0.00000000       0.36363636       0.36363636 </v>
   <v>       0.09090909       0.36363636       0.36363636 </v>
   <v>       0.18181818       0.36363636       0.36363636 </v>
   <v>       0.27272727       0.36363636       0.36363636 </v>
   <v>       0.36363636       0.36363636       0.36363636 </v>
   <v>       0.45454545       0.36363636       0.36363636 </v>
   <v>       0.00000000       0.45454545       0.36363636 </v>
   <v>       0.09090909       0.45454545       0.36363636 </v>
   <v>       0.18181818       0.45454545       0.36363636 </v>
   <v>       0.27272727       0.45454545       0.36363636 </v>
   <v>       0.36363636       0.45454545       0.36363636 </v>
   <v>       0.45454545       0.45454545       0.36363636 </v>
   <v>       0.00000000       0.45454545       0.45454545 </v>
   <v>       0.09090909       0.45454545       0.45454545 </v>
   <v>       0.18181818       0.45454545       0.45454545 </v>
   <v>       0.27272727       0.45454545       0.45454545 </v>
   <v>       0.36363636       0.45454545       0.45454545 </v>
   <v>       0.45454545       0.45454545       0.45454545 </v>
  </varray>
  <varray name="weights" >
   <v>       0.00075131 </v>
   <v>       0.00150263 </v>
   <v>       0.00150263 </v>
   <v>       0.00150263 </v>
   <v>       0.00150263 </v>
   <v>       0.00150263 </v>
   <v>       0.00300526 </v>
   <v>       0.00601052 </v>
   <v>       0.00601052 </v>
   <v>       0.00601052 </v>
   <v>       0.00601052 </v>
   <v>       0.00601052 </v>
   <v>       0.00300526 </v>
   <v>       0.00601052 </v>
   <v>       0.00601052 </v>
   <v>       0.00601052 </v>
   <v>       0.00601052 </v>
   <v>       0.00601052 </v>
   <v>       0.00300526 </v>
   <v>       0.00601052 </v>
   <v>       0.00601052 </v>
   <v>       0.00601052 </v>
   <v>       0.00601052 </v>
   <v>       0.00601052 </v>
   <v>       0.00300526 </v>
   <v>       0.00601052 </v>
   <v>       0.00601052 </v>
   <v>       0.00601052 </v>
   <v>       0.00601052 </v>
   <v>       0.00601052 </v>
   <v>       0.00300526 </v>
   <v>       0.00601052 </v>
   <v>       0.00601052 </v>
   <v>       0.00601052 </v>
   <v>       0.00601052 </v>
   <v>       0.00601052 </v>
   <v>       0.00300526 </v>
   <v>       0.00601052 </v>
   <v>       0.00601052 </v>
   <v>       0.00601052 </v>
   <v>       0.00601052 </v>
   <v>       0.00601052 </v>
   <v>       0.00601052 </v>
   <v>       0.01202104 </v>
   <v>       0.01202104 </v>
   <v>       0.01202104 </v>
   <v>       0.01202104 </v>
   <v>       0.01202104 </v>
   <v>       0.00601052 </v>
   <v>       0.01202104 </v>
   <v>       0.01202104 </v>
   <v>       0.01202104 </v>
   <v>       0.01202104 </v>
   <v>       0.01202104 </v>
   <v>       0.00601052 </v>
   <v>       0.01202104 </v>
   <v>       0.01202104 </v>
   <v>       0.01202104 </v>
   <v>       0.01202104 </v>
   <v>       0.01202104 </v>
   <v>       0.00601052 </v>
   <v>       0.01202104 </v>
   <v>       0.01202104 </v>
   <v>       0.01202104 </v>
   <v>       0.01202104 </v>
   <v>       0.01202104 </v>
   <v>       0.00300526 </v>
   <v>       0.00601052 </v>
   <v>       0.00601052 </v>
   <v>       0.00601052 </v>
   <v>       0.00601052 </v>
   <v>       0.00601052 </v>
   <v>       0.00601052 </v>
   <v>       0.01202104 </v>
   <v>       0.01202104 </v>
   <v>       0.01202104 </v>
   <v>       0.01202104 </v>
   <v>       0.01202104 </v>
   <v>       0.00601052 </v>
   <v>       0.01202104 </v>
   <v>       0.01202104 </v>
   <v>       0.01202104 </v>
   <v>       0.01202104 </v>
   <v>       0.01202104 </v>
   <v>       0.00601052 </v>
   <v>       0.01202104 </v>
   <v>       0.01202104 </v>
   <v>       0.01202104 </v>
   <v>       0.01202104 </v>
   <v>       0.01202104 </v>
   <v>       0.00300526 </v>
   <v>       0.00601052 </v>
   <v>       0.00601052 </v>
   <v>       0.00601052 </v>
   <v>       0.00601052 </v>
   <v>       0.00601052 </v>
   <v>       0.00601052 </v>
   <v>       0.01202104 </v>
   <v>       0.01202104 </v>
   <v>       0.01202104 </v>
   <v>       0.01202104 </v>
   <v>       0.01202104 </v>
   <v>       0.00601052 </v>
   <v>       0.01202104 </v>
   <v>       0.01202104 </v>
   <v>       0.01202104 </v>
   <v>       0.01202104 </v>
   <v>       0.01202104 </v>
   <v>       0.00300526 </v>
   <v>       0.00601052 </v>
   <v>       0.00601052 </v>
   <v>       0.00601052 </v>
   <v>       0.00601052 </v>
   <v>       0.00601052 </v>
   <v>       0.00601052 </v>
   <v>       0.01202104 </v>
   <v>       0.01202104 </v>
   <v>       0.01202104 </v>
   <v>       0.01202104 </v>
   <v>       0.01202104 </v>
   <v>       0.00300526 </v>
   <v>       0.00601052 </v>
   <v>       0.00601052 </v>
   <v>       0.00601052 </v>
   <v>       0.00601052 </v>
   <v>       0.00601052 </v>
  </varray>
 </kpoints>
 <parameters>
  <separator name="general" >
   <i type="string" name="SYSTEM">unknown system</i>
   <i type="logical" name="LCOMPAT"> F  </i>
  </separator>
  <separator name="electronic" >
   <i type="string" name="PREC">accura</i>
   <i name="ENMAX">    520.00000000</i>
   <i name="ENAUG">    291.05200000</i>
   <i name="EDIFF">      0.00005000</i>
   <i type="int" name="IALGO">    38</i>
   <i type="int" name="IWAVPR">    10</i>
   <i type="int" name="NBANDS">    12</i>
   <i name="NELECT">     12.00000000</i>
   <i type="int" name="TURBO">     0</i>
   <i type="int" name="IRESTART">     0</i>
   <i type="int" name="NREBOOT">     0</i>
   <i type="int" name="NMIN">     0</i>
   <i name="EREF">      0.00000000</i>
   <separator name="electronic smearing" >
    <i type="int" name="ISMEAR">     1</i>
    <i name="SIGMA">      0.05000000</i>
    <i name="KSPACING">      0.50000000</i>
    <i type="logical" name="KGAMMA"> T  </i>
   </separator>
   <separator name="electronic projectors" >
    <i type="logical" name="LREAL"> F  </i>
    <v name="ROPT">      0.00000000</v>
    <i type="int" name="LMAXPAW">  -100</i>
    <i type="int" name="LMAXMIX">     2</i>
    <i type="logical" name="NLSPLINE"> F  </i>
   </separator>
   <separator name="electronic startup" >
    <i type="int" name="ISTART">     0</i>
    <i type="int" name="ICHARG">     2</i>
    <i type="int" name="INIWAV">     1</i>
   </separator>
   <separator name="electronic spin" >
    <i type="int" name="ISPIN">     1</i>
    <i type="logical" name="LNONCOLLINEAR"> F  </i>
    <v name="MAGMOM">      1.00000000      1.00000000      1.00000000      1.00000000</v>
    <i name="NUPDOWN">     -1.00000000</i>
    <i type="logical" name="LSORBIT"> F  </i>
    <v name="SAXIS">      0.00000000      0.00000000      1.00000000</v>
    <i type="logical" name="LSPIRAL"> F  </i>
    <v name="QSPIRAL">      0.00000000      0.00000000      0.00000000</v>
    <i type="logical" name="LZEROZ"> F  </i>
   </separator>
   <separator name="electronic exchange-correlation" >
    <i type="logical" name="LASPH"> T  </i>
    <i type="logical" name="LMETAGGA"> F  </i>
   </separator>
   <separator name="electronic convergence" >
    <i type="int" name="NELM">   100</i>
    <i type="int" name="NELMDL">    -5</i>
    <i type="int" name="NELMIN">     4</i>
    <i name="ENINI">    520.00000000</i>
    <separator name="electronic convergence detail" >
     <i type="logical" name="LDIAG"> T  </i>
     <i type="logical" name="LSUBROT"> F  </i>
     <i name="WEIMIN">      0.00000000</i>
     <i name="EBREAK">      0.00000104</i>
     <i name="DEPER">      0.30000000</i>
     <i type="int" name="NRMM">     4</i>
     <i name="TIME">      0.40000000</i>
    </separator>
   </separator>
   <separator name="electronic mixer" >
    <i name="AMIX">      0.40000000</i>
    <i name="BMIX">      1.00000000</i>
    <i name="AMIN">      0.10000000</i>
    <i name="AMIX_MAG">      1.60000000</i>
    <i name="BMIX_MAG">      1.00000000</i>
    <separator name="electronic mixer details" >
     <i type="int" name="IMIX">     4</i>
     <i type="logical" name="MIXFIRST"> F  </i>
     <i type="int" name="MAXMIX">   -45</i>
     <i name="WC">    100.00000000</i>
     <i type="int" name="INIMIX">     1</i>
     <i type="int" name="MIXPRE">     1</i>
     <i type="int" name="MREMOVE">     5</i>
    </separator>
   </separator>
   <separator name="electronic dipolcorrection" >
    <i type="logical" name="LDIPOL"> F  </i>
    <i type="logical" name="LMONO"> F  </i>
    <i type="int" name="IDIPOL">     0</i>
    <i name="EPSILON">      1.00000000</i>
    <v name="DIPOL">   -100.00000000   -100.00000000   -100.00000000</v>
    <i name="EFIELD">      0.00000000</i>
   </separator>
  </separator>
  <separator name="grids" >
   <i type="int" name="NGX">    30</i>
   <i type="int" name="NGY">    30</i>
   <i type="int" name="NGZ">    30</i>
   <i type="int" name="NGXF">    60</i>
   <i type="int" name="NGYF">    60</i>
   <i type="int" name="NGZF">    60</i>
   <i type="logical" name="ADDGRID"> T  </i>
  </separator>
  <separator name="ionic" >
   <i type="int" name="NSW">     0</i>
   <i type="int" name="IBRION">    -1</i>
   <i type="int" name="MDALGO">     0</i>
   <i type="int" name="ISIF">     2</i>
   <i name="PSTRESS">      0.00000000</i>
   <i name="EDIFFG">      0.00050000</i>
   <i type="int" name="NFREE">     0</i>
   <i name="POTIM">      0.50000000</i>
   <i name="SMASS">     -3.00000000</i>
   <i name="SCALEE">      1.00000000</i>
  </separator>
  <separator name="ionic md" >
   <i name="TEBEG">      0.00010000</i>
   <i name="TEEND">      0.00010000</i>
   <i type="int" name="NBLOCK">     1</i>
   <i type="int" name="KBLOCK">     1</i>
   <i type="int" name="NPACO">   256</i>
   <i name="APACO">     16.00000000</i>
  </separator>
  <separator name="symmetry" >
   <i type="int" name="ISYM">     2</i>
   <i name="SYMPREC">      0.00001000</i>
  </separator>
  <separator name="dos" >
   <i type="int" name="LORBIT">     0</i>
   <v name="RWIGS">     -1.00000000</v>
   <i type="int" name="NEDOS">   301</i>
   <i name="EMIN">     10.00000000</i>
   <i name="EMAX">    -10.00000000</i>
   <i name="EFERMI">      0.00000000</i>
  </separator>
  <separator name="writing" >
   <i type="int" name="NWRITE">     2</i>
   <i type="logical" name="LWAVE"> F  </i>
   <i type="logical" name="LDOWNSAMPLE"> F  </i>
   <i type="logical" name="LCHARG"> F  </i>
   <i type="logical" name="LPARD"> F  </i>
   <i type="logical" name="LVTOT"> F  </i>
   <i type="logical" name="LVHAR"> F  </i>
   <i type="logical" name="LELF"> F  </i>
   <i type="logical" name="LOPTICS"> F  </i>
   <v name="STM">      0.00000000      0.00000000      0.00000000      0.00000000      0.00000000      0.00000000      0.00000000</v>
  </separator>
  <separator name="performance" >
   <i type="int" name="NPAR">     4</i>
   <i type="int" name="NSIM">     4</i>
   <i type="int" name="NBLK">    -1</i>
   <i type="logical" name="LPLANE"> T  </i>
   <i type="logical" name="LSCALAPACK"> T  </i>
   <i type="logical" name="LSCAAWARE"> F  </i>
   <i type="logical" name="LSCALU"> F  </i>
   <i type="logical" name="LASYNC"> F  </i>
   <i type="logical" name="LORBITALREAL"> F  </i>
  </separator>
  <separator name="miscellaneous" >
   <i type="int" name="IDIOT">     3</i>
   <i type="int" name="ISPECIAL">     0</i>
   <i type="logical" name="LMUSIC"> F  </i>
   <v name="POMASS">     26.98100000</v>
   <v name="DARWINR">      0.00000000</v>
   <v name="DARWINV">      1.00000000</v>
   <i type="logical" name="LCORR"> T  </i>
  </separator>
  <i type="logical" name="GGA_COMPAT"> T  </i>
  <i type="logical" name="LBERRY"> F  </i>
  <i type="int" name="ICORELEVEL">     0</i>
  <i type="logical" name="LDAU"> F  </i>
  <i type="int" name="I_CONSTRAINED_M">     0</i>
  <separator name="electronic exchange-correlation" >
   <i type="string" name="GGA">--</i>
   <i type="int" name="VOSKOWN">     0</i>
   <i type="logical" name="LHFCALC"> F  </i>
   <i type="string" name="PRECFOCK"></i>
   <i type="logical" name="LSYMGRAD"> F  </i>
   <i type="logical" name="LHFONE"> F  </i>
   <i type="logical" name="LRHFCALC"> F  </i>
   <i type="logical" name="LTHOMAS"> F  </i>
   <i type="logical" name="LMODELHF"> F  </i>
   <i name="ENCUT4O">     -1.00000000</i>
   <i type="int" name="EXXOEP">     0</i>
   <i type="int" name="FOURORBIT">     0</i>
   <i name="AEXX">      0.00000000</i>
   <i name="HFALPHA">      0.00000000</i>
   <i name="MCALPHA">      0.00000000</i>
   <i name="ALDAX">      1.00000000</i>
   <i name="AGGAX">      1.00000000</i>
   <i name="ALDAC">      1.00000000</i>
   <i name="AGGAC">      1.00000000</i>
   <i type="int" name="NKREDX">     1</i>
   <i type="int" name="NKREDY">     1</i>
   <i type="int" name="NKREDZ">     1</i>
   <i type="logical" name="SHIFTRED"> F  </i>
   <i type="logical" name="ODDONLY"> F  </i>
   <i type="logical" name="EVENONLY"> F  </i>
   <i type="int" name="LMAXFOCK">     0</i>
   <i type="int" name="NMAXFOCKAE">     0</i>
   <i type="logical" name="LFOCKAEDFT"> F  </i>
   <i name="HFSCREEN">      0.00000000</i>
   <i name="HFSCREENC">      0.00000000</i>
   <i type="int" name="NBANDSGWLOW">     0</i>
  </separator>
  <separator name="vdW DFT" >
   <i type="logical" name="LUSE_VDW"> F  </i>
   <i name="Zab_VDW">     -0.84910000</i>
   <i name="PARAM1">      0.12340000</i>
   <i name="PARAM2">      1.00000000</i>
   <i name="PARAM3">      0.00000000</i>
  </separator>
  <separator name="model GW" >
   <i type="int" name="MODEL_GW">     0</i>
   <i name="MODEL_EPS0">      9.81596048</i>
   <i name="MODEL_ALPHA">      1.00000000</i>
  </separator>
  <separator name="linear response parameters" >
   <i type="logical" name="LEPSILON"> F  </i>
   <i type="logical" name="LRPA"> F  </i>
   <i type="logical" name="LNABLA"> F  </i>
   <i type="logical" name="LVEL"> F  </i>
   <i type="int" name="KINTER">     0</i>
   <i name="CSHIFT">      0.10000000</i>
   <i name="OMEGAMAX">     -1.00000000</i>
   <i name="DEG_THRESHOLD">      0.00200000</i>
   <i name="RTIME">     -0.10000000</i>
   <i name="WPLASMAI">      0.00000000</i>
   <v name="DFIELD">      0.00000000      0.00000000      0.00000000</v>
   <v name="WPLASMA">      0.00000000      0.00000000      0.00000000      0.00000000      0.00000000      0.00000000      0.00000000      0.00000000      0.00000000</v>
  </separator>
  <separator name="orbital magnetization" >
   <i type="logical" name="NUCIND"> F  </i>
   <v name="MAGPOS">      0.00000000      0.00000000      0.00000000</v>
   <i type="logical" name="LNICSALL"> T  </i>
   <i type="logical" name="ORBITALMAG"> F  </i>
   <i type="logical" name="LMAGBLOCH"> F  </i>
   <i type="logical" name="LCHIMAG"> F  </i>
   <i type="logical" name="LGAUGE"> T  </i>
   <i type="int" name="MAGATOM">     0</i>
   <v name="MAGDIPOL">      0.00000000      0.00000000      0.00000000</v>
   <v name="AVECCONST">      0.00000000      0.00000000      0.00000000</v>
  </separator>
  <separator name="response functions" >
   <i type="logical" name="LADDER"> F  </i>
   <i type="logical" name="LRPAFORCE"> F  </i>
   <i type="logical" name="LFXC"> F  </i>
   <i type="logical" name="LHARTREE"> T  </i>
   <i type="int" name="IBSE">     0</i>
   <v type="int" name="KPOINT">    -1     0     0     0</v>
   <i type="logical" name="LTCTE"> F  </i>
   <i type="logical" name="LTETE"> F  </i>
   <i type="logical" name="LTRIPLET"> F  </i>
   <i type="logical" name="LFXCEPS"> F  </i>
   <i type="logical" name="LFXHEG"> F  </i>
   <i type="int" name="NATURALO">     2</i>
   <i type="logical" name="L2ORDER"> F  </i>
   <i type="logical" name="LMP2LT"> F  </i>
   <i type="logical" name="LUSEW"> F  </i>
   <i name="ENCUTGW">     -2.00000000</i>
   <i name="ENCUTGWSOFT">     -2.00000000</i>
   <i name="ENCUTLF">     -1.00000000</i>
   <i type="int" name="LMAXMP2">    -1</i>
   <i name="SCISSOR">      0.00000000</i>
   <i type="int" name="NOMEGA">     0</i>
   <i type="int" name="NOMEGAR">     0</i>
   <i type="int" name="NBANDSGW">    -1</i>
   <i type="int" name="NBANDSO">    -1</i>
   <i type="int" name="NBANDSV">    -1</i>
   <i type="int" name="NELM">   100</i>
   <i type="int" name="NELMHF">     1</i>
   <i type="int" name="DIM">     3</i>
   <i type="int" name="ANTIRES">     0</i>
   <i name="OMEGAMAX">    -30.00000000</i>
   <i name="OMEGAMIN">    -30.00000000</i>
   <i name="OMEGATL">   -200.00000000</i>
   <i type="int" name="OMEGAGRID">   140</i>
   <i name="CSHIFT">     -0.10000000</i>
   <i type="logical" name="SELFENERGY"> F  </i>
   <i type="logical" name="LSPECTRAL"> F  </i>
   <i type="logical" name="LSPECTRALGW"> F  </i>
   <i type="logical" name="LSINGLES"> F  </i>
   <i type="logical" name="LFERMIGW"> F  </i>
   <i type="logical" name="ODDONLYGW"> F  </i>
   <i type="logical" name="EVENONLYGW"> F  </i>
   <i type="int" name="NKREDLFX">     1</i>
   <i type="int" name="NKREDLFY">     1</i>
   <i type="int" name="NKREDLFZ">     1</i>
   <i type="int" name="MAXMEM">  2800</i>
   <i type="int" name="TELESCOPE">     0</i>
   <i type="int" name="TAUPAR">     1</i>
   <i type="int" name="OMEGAPAR">    -1</i>
   <i name="LAMBDA">      1.00000000</i>
  </separator>
  <separator name="External order field" >
   <i name="OFIELD_KAPPA">      0.00000000</i>
   <v name="OFIELD_K">      0.00000000      0.00000000      0.00000000</v>
   <i name="OFIELD_Q6_NEAR">      0.00000000</i>
   <i name="OFIELD_Q6_FAR">      0.00000000</i>
   <i name="OFIELD_A">      0.00000000</i>
  </separator>
 </parameters>
 <atominfo>
  <atoms>       4 </atoms>
  <types>       1 </types>
  <array name="atoms" >
   <dimension dim="1">ion</dimension>
   <field type="string">element</field>
   <field type="int">atomtype</field>
   <set>
    <rc><c>Al</c><c>   1</c></rc>
    <rc><c>Al</c><c>   1</c></rc>
    <rc><c>Al</c><c>   1</c></rc>
    <rc><c>Al</c><c>   1</c></rc>
   </set>
  </array>
  <array name="atomtypes" >
   <dimension dim="1">type</dimension>
   <field type="int">atomspertype</field>
   <field type="string">element</field>
   <field>mass</field>
   <field>valence</field>
   <field type="string">pseudopotential</field>
   <set>
    <rc><c>   4</c><c>Al</c><c>     26.98100000</c><c>      3.00000000</c><c>  PAW_PBE Al 04Jan2001                  </c></rc>
   </set>
  </array>
 </atominfo>
 <structure name="initialpos" >
  <crystal>
   <varray name="basis" >
    <v>       4.00272600       0.00000000       0.00000000 </v>
    <v>       0.00000000       4.04336400       0.00000000 </v>
    <v>       0.00000000       0.00000000       4.04336400 </v>
   </varray>
   <i name="volume">     65.43973655 </i>
   <varray name="rec_basis" >
    <v>       0.24982974       0.00000000       0.00000000 </v>
    <v>       0.00000000       0.24731882       0.00000000 </v>
    <v>       0.00000000       0.00000000       0.24731882 </v>
   </varray>
  </crystal>
  <varray name="positions" >
   <v>       0.00000000       0.00000000       0.00000000 </v>
   <v>       0.00000000       0.50000000       0.50000000 </v>
   <v>       0.50000000       0.00000000       0.50000000 </v>
   <v>       0.50000000       0.50000000       0.00000000 </v>
  </varray>
 </structure>
 <calculation>
  <scstep>
   <time name="dav">    0.46    0.48</time>
   <time name="total">    0.55    0.58</time>
   <energy>
    <i name="alphaZ">     -0.82122822 </i>
    <i name="ewald">   -294.89927415 </i>
    <i name="hartreedc">     -0.39311386 </i>
    <i name="XCdc">   -104.89748688 </i>
    <i name="pawpsdc">    264.80062850 </i>
    <i name="pawaedc">   -136.98248303 </i>
    <i name="eentropy">     -0.00008640 </i>
    <i name="bandstr">     66.58882501 </i>
    <i name="atom">    214.15382826 </i>
    <i name="e_fr_energy">      7.54960925 </i>
    <i name="e_wo_entrp">      7.54969564 </i>
    <i name="e_0_energy">      7.54963805 </i>
   </energy>
  </scstep>
  <scstep>
   <time name="dav">    0.54    0.54</time>
   <time name="total">    0.54    0.54</time>
   <energy>
    <i name="e_fr_energy">    -14.34235836 </i>
    <i name="e_wo_entrp">    -14.34251773 </i>
    <i name="e_0_energy">    -14.34241148 </i>
   </energy>
  </scstep>
  <scstep>
   <time name="dav">    0.53    0.53</time>
   <time name="total">    0.54    0.54</time>
   <energy>
    <i name="e_fr_energy">    -15.06024916 </i>
    <i name="e_wo_entrp">    -15.06028033 </i>
    <i name="e_0_energy">    -15.06025955 </i>
   </energy>
  </scstep>
  <scstep>
   <time name="dav">    0.49    0.49</time>
   <time name="total">    0.49    0.49</time>
   <energy>
    <i name="e_fr_energy">    -15.06535086 </i>
    <i name="e_wo_entrp">    -15.06538255 </i>
    <i name="e_0_energy">    -15.06536143 </i>
   </energy>
  </scstep>
  <scstep>
   <time name="dav">    0.53    0.53</time>
   <time name="total">    0.58    0.58</time>
   <energy>
    <i name="e_fr_energy">    -15.06540195 </i>
    <i name="e_wo_entrp">    -15.06543364 </i>
    <i name="e_0_energy">    -15.06541252 </i>
   </energy>
  </scstep>
  <scstep>
   <time name="dav">    0.49    0.49</time>
   <time name="total">    0.63    0.63</time>
   <energy>
    <i name="e_fr_energy">    -15.01362464 </i>
    <i name="e_wo_entrp">    -15.01366037 </i>
    <i name="e_0_energy">    -15.01363655 </i>
   </energy>
  </scstep>
  <scstep>
   <time name="dav">    0.47    0.47</time>
   <time name="total">    0.60    0.60</time>
   <energy>
    <i name="e_fr_energy">    -14.97588671 </i>
    <i name="e_wo_entrp">    -14.97595172 </i>
    <i name="e_0_energy">    -14.97590838 </i>
   </energy>
  </scstep>
  <scstep>
   <time name="dav">    0.53    0.53</time>
   <time name="total">    0.66    0.66</time>
   <energy>
    <i name="e_fr_energy">    -14.97578090 </i>
    <i name="e_wo_entrp">    -14.97584846 </i>
    <i name="e_0_energy">    -14.97580342 </i>
   </energy>
  </scstep>
  <scstep>
   <time name="dav">    0.37    0.37</time>
   <time name="total">    0.46    0.46</time>
   <energy>
    <i name="alphaZ">     -0.82122822 </i>
    <i name="ewald">   -294.89927415 </i>
    <i name="hartreedc">     -0.42705544 </i>
    <i name="XCdc">   -104.45146682 </i>
    <i name="pawpsdc">    571.39963233 </i>
    <i name="pawaedc">   -443.63845447 </i>
    <i name="eentropy">      0.00006795 </i>
    <i name="bandstr">     43.70817634 </i>
    <i name="atom">    214.15382826 </i>
    <i name="e_fr_energy">    -14.97577421 </i>
    <i name="e_wo_entrp">    -14.97584216 </i>
    <i name="e_0_energy">    -14.97579686 </i>
   </energy>
  </scstep>
  <structure>
   <crystal>
    <varray name="basis" >
     <v>       4.00272600       0.00000000       0.00000000 </v>
     <v>       0.00000000       4.04336400       0.00000000 </v>
     <v>       0.00000000       0.00000000       4.04336400 </v>
    </varray>
    <i name="volume">     65.43973655 </i>
    <varray name="rec_basis" >
     <v>       0.24982974       0.00000000       0.00000000 </v>
     <v>       0.00000000       0.24731882       0.00000000 </v>
     <v>       0.00000000       0.00000000       0.24731882 </v>
    </varray>
   </crystal>
   <varray name="positions" >
    <v>       0.00000000       0.00000000       0.00000000 </v>
    <v>       0.00000000       0.50000000       0.50000000 </v>
    <v>       0.50000000       0.00000000       0.50000000 </v>
    <v>       0.50000000       0.50000000       0.00000000 </v>
   </varray>
  </structure>
  <varray name="forces" >
   <v>       0.00000000      -0.00000000      -0.00000000 </v>
   <v>       0.00000000       0.00000000      -0.00000000 </v>
   <v>      -0.00000000      -0.00000000       0.00000000 </v>
   <v>      -0.00000000      -0.00000000       0.00000000 </v>
  </varray>
  <varray name="stress" >
   <v>       7.00579942      -0.00000000      -0.00000000 </v>
   <v>       0.00000000       7.75988002       0.00000000 </v>
   <v>       0.00000000       0.00000000       7.75988002 </v>
  </varray>
  <energy>
   <i name="e_fr_energy">    -14.97577421 </i>
   <i name="e_wo_entrp">    -14.97579686 </i>
   <i name="e_0_energy">      0.00006795 </i>
  </energy>
  <time name="totalsc">    5.77    5.92</time>
  <eigenvalues>
   <array>
    <dimension dim="1">band</dimension>
    <dimension dim="2">kpoint</dimension>
    <dimension dim="3">spin</dimension>
    <field>eigene</field>
    <field>occ</field>
    <set>
     <set comment="spin 1">
      <set comment="kpoint 1">
       <r>   -3.1037    1.0000 </r>
       <r>    5.0968    1.0000 </r>
       <r>    5.0968    1.0000 </r>
       <r>    5.2445    1.0000 </r>
       <r>    6.4181    1.0000 </r>
       <r>    6.4181    1.0000 </r>
       <r>    6.6265    1.0000 </r>
       <r>   13.2722    0.0000 </r>
       <r>   13.3899    0.0000 </r>
       <r>   13.3899    0.0000 </r>
       <r>   13.6002    0.0000 </r>
       <r>   13.6025    0.0000 </r>
      </set>
      <set comment="kpoint 2">
       <r>   -3.0274    1.0000 </r>
       <r>    4.2597    1.0000 </r>
       <r>    5.1666    1.0000 </r>
       <r>    5.1666    1.0000 </r>
       <r>    6.4917    1.0000 </r>
       <r>    6.4917    1.0000 </r>
       <r>    7.7430    1.0000 </r>
       <r>   12.1097    0.0000 </r>
       <r>   12.1097    0.0000 </r>
       <r>   13.2377    0.0000 </r>
       <r>   13.2377    0.0000 </r>
       <r>   13.3477    0.0000 </r>
      </set>
      <set comment="kpoint 3">
       <r>   -2.7986    1.0000 </r>
       <r>    2.9308    1.0000 </r>
       <r>    5.3761    1.0000 </r>
       <r>    5.3761    1.0000 </r>
       <r>    6.7114    1.0000 </r>
       <r>    6.7114    1.0000 </r>
       <r>    9.4667    0.0000 </r>
       <r>   10.7776    0.0000 </r>
       <r>   10.7776    0.0000 </r>
       <r>   12.2157    0.0000 </r>
       <r>   12.2157    0.0000 </r>
       <r>   13.5738    0.0000 </r>
      </set>
      <set comment="kpoint 4">
       <r>   -2.4181    1.0000 </r>
       <r>    1.6948    1.0000 </r>
       <r>    5.7256    1.0000 </r>
       <r>    5.7256    1.0000 </r>
       <r>    7.0717    1.0000 </r>
       <r>    7.0717    1.0000 </r>
       <r>    9.5828    0.0000 </r>
       <r>    9.5828    0.0000 </r>
       <r>   11.1376    0.0000 </r>
       <r>   11.1376    0.0000 </r>
       <r>   11.3598    0.0000 </r>
       <r>   13.9501    0.0000 </r>
      </set>
      <set comment="kpoint 5">
       <r>   -1.8872    1.0000 </r>
       <r>    0.5874    1.0000 </r>
       <r>    6.2152    1.0000 </r>
       <r>    6.2152    1.0000 </r>
       <r>    7.5565    1.0000 </r>
       <r>    7.5565    1.0000 </r>
       <r>    8.5290   -0.0000 </r>
       <r>    8.5290   -0.0000 </r>
       <r>   10.1451    0.0000 </r>
       <r>   10.1451    0.0000 </r>
       <r>   13.3845    0.0000 </r>
       <r>   14.4760    0.0000 </r>
      </set>
      <set comment="kpoint 6">
       <r>   -1.2076    1.0000 </r>
       <r>   -0.3816    1.0000 </r>
       <r>    6.8454    1.0000 </r>
       <r>    6.8454    1.0000 </r>
       <r>    7.6166    1.0000 </r>
       <r>    7.6166    1.0000 </r>
       <r>    8.0809    0.0083 </r>
       <r>    8.0809    0.0083 </r>
       <r>    9.3608   -0.0000 </r>
       <r>    9.3608   -0.0000 </r>
       <r>   15.1503    0.0000 </r>
       <r>   15.2202    0.0000 </r>
      </set>
      <set comment="kpoint 7">
       <r>   -3.0289    1.0000 </r>
       <r>    4.1206    1.0000 </r>
       <r>    5.1652    1.0000 </r>
       <r>    5.3128    1.0000 </r>
       <r>    6.4903    1.0000 </r>
       <r>    6.6985    1.0000 </r>
       <r>    7.5237    1.0000 </r>
       <r>   11.9753    0.0000 </r>
       <r>   12.1107    0.0000 </r>
       <r>   13.0987    0.0000 </r>
       <r>   13.3168    0.0000 </r>
       <r>   13.4637    0.0000 </r>
      </set>
      <set comment="kpoint 8">
       <r>   -2.9526    1.0000 </r>
       <r>    4.1924    1.0000 </r>
       <r>    4.3301    1.0000 </r>
       <r>    5.2351    1.0000 </r>
       <r>    6.5634    1.0000 </r>
       <r>    7.5949    1.0000 </r>
       <r>    7.8124    1.0000 </r>
       <r>   11.1662    0.0000 </r>
       <r>   12.0460    0.0000 </r>
       <r>   12.1791    0.0000 </r>
       <r>   13.1656    0.0000 </r>
       <r>   13.3030    0.0000 </r>
      </set>
      <set comment="kpoint 9">
       <r>   -2.7240    1.0000 </r>
       <r>    3.0023    1.0000 </r>
       <r>    4.4078    1.0000 </r>
       <r>    5.4446    1.0000 </r>
       <r>    6.7806    1.0000 </r>
       <r>    7.8071    1.0000 </r>
       <r>    9.5331    0.0000 </r>
       <r>    9.8977    0.0000 </r>
       <r>   10.8467    0.0000 </r>
       <r>   12.2581    0.0000 </r>
       <r>   12.2847    0.0000 </r>
       <r>   13.1776    0.0000 </r>
      </set>
      <set comment="kpoint 10">
       <r>   -2.3437    1.0000 </r>
       <r>    1.7671    1.0000 </r>
       <r>    4.7662    1.0000 </r>
       <r>    5.7941    1.0000 </r>
       <r>    7.1293    1.0000 </r>
       <r>    8.1534   -0.0032 </r>
       <r>    8.7325   -0.0000 </r>
       <r>    9.6518    0.0000 </r>
       <r>   11.2131    0.0000 </r>
       <r>   11.4197    0.0000 </r>
       <r>   12.1167    0.0000 </r>
       <r>   12.6111    0.0000 </r>
      </set>
      <set comment="kpoint 11">
       <r>   -1.8130    1.0000 </r>
       <r>    0.6603    1.0000 </r>
       <r>    5.2661    1.0000 </r>
       <r>    6.2838    1.0000 </r>
       <r>    7.4054    1.0000 </r>
       <r>    7.9029    1.0003 </r>
       <r>    8.5979   -0.0000 </r>
       <r>    8.6036   -0.0000 </r>
       <r>   10.2457    0.0000 </r>
       <r>   11.1173    0.0000 </r>
       <r>   13.1042    0.0000 </r>
       <r>   13.4123    0.0000 </r>
      </set>
      <set comment="kpoint 12">
       <r>   -1.1338    1.0000 </r>
       <r>   -0.3083    1.0000 </r>
       <r>    5.9049    1.0000 </r>
       <r>    6.6724    1.0000 </r>
       <r>    6.9141    1.0000 </r>
       <r>    7.6854    1.0000 </r>
       <r>    8.3305   -0.0000 </r>
       <r>    8.8572   -0.0000 </r>
       <r>    9.7238    0.0000 </r>
       <r>   10.2532    0.0000 </r>
       <r>   13.7364    0.0000 </r>
       <r>   14.5059    0.0000 </r>
      </set>
      <set comment="kpoint 13">
       <r>   -2.8047    1.0000 </r>
       <r>    2.8142    1.0000 </r>
       <r>    5.3706    1.0000 </r>
       <r>    5.5179    1.0000 </r>
       <r>    6.7057    1.0000 </r>
       <r>    6.9129    1.0000 </r>
       <r>    9.2182   -0.0000 </r>
       <r>   10.6668    0.0000 </r>
       <r>   10.8050    0.0000 </r>
       <r>   12.1014    0.0000 </r>
       <r>   12.3142    0.0000 </r>
       <r>   13.6849    0.0000 </r>
      </set>
      <set comment="kpoint 14">
       <r>   -2.7285    1.0000 </r>
       <r>    2.8872    1.0000 </r>
       <r>    4.5409    1.0000 </r>
       <r>    5.4405    1.0000 </r>
       <r>    6.7764    1.0000 </r>
       <r>    8.0191    0.8296 </r>
       <r>    9.2868   -0.0000 </r>
       <r>    9.9190    0.0000 </r>
       <r>   10.7373    0.0000 </r>
       <r>   12.1724    0.0000 </r>
       <r>   12.3873    0.0000 </r>
       <r>   13.2772    0.0000 </r>
      </set>
      <set comment="kpoint 15">
       <r>   -2.5002    1.0000 </r>
       <r>    3.1060    1.0000 </r>
       <r>    3.2165    1.0000 </r>
       <r>    5.6502    1.0000 </r>
       <r>    6.9793    1.0000 </r>
       <r>    8.6756   -0.0000 </r>
       <r>    9.4889    0.0000 </r>
       <r>    9.7277    0.0000 </r>
       <r>   10.9486    0.0000 </r>
       <r>   11.0540    0.0000 </r>
       <r>   12.3881    0.0000 </r>
       <r>   12.4933    0.0000 </r>
      </set>
      <set comment="kpoint 16">
       <r>   -2.1206    1.0000 </r>
       <r>    1.9836    1.0000 </r>
       <r>    3.4700    1.0000 </r>
       <r>    5.9998    1.0000 </r>
       <r>    7.1375    1.0000 </r>
       <r>    7.6997    1.0000 </r>
       <r>    9.8015    0.0000 </r>
       <r>    9.8587    0.0000 </r>
       <r>   11.3007    0.0000 </r>
       <r>   11.4537    0.0000 </r>
       <r>   11.5728    0.0000 </r>
       <r>   12.7733    0.0000 </r>
      </set>
      <set comment="kpoint 17">
       <r>   -1.5908    1.0000 </r>
       <r>    0.8787    1.0000 </r>
       <r>    3.9777    1.0000 </r>
       <r>    6.3226    1.0000 </r>
       <r>    6.4897    1.0000 </r>
       <r>    7.9604    1.0229 </r>
       <r>    8.8045   -0.0000 </r>
       <r>    9.9729    0.0000 </r>
       <r>   10.7593    0.0000 </r>
       <r>   11.7933    0.0000 </r>
       <r>   12.7191    0.0000 </r>
       <r>   13.0297    0.0000 </r>
      </set>
      <set comment="kpoint 18">
       <r>   -0.9126    1.0000 </r>
       <r>   -0.0884    1.0000 </r>
       <r>    4.6271    1.0000 </r>
       <r>    5.4137    1.0000 </r>
       <r>    7.1202    1.0000 </r>
       <r>    7.8917    1.0001 </r>
       <r>    8.5819   -0.0000 </r>
       <r>    9.3270   -0.0000 </r>
       <r>   11.1260    0.0000 </r>
       <r>   11.8507    0.0000 </r>
       <r>   12.4259    0.0000 </r>
       <r>   13.1976    0.0000 </r>
      </set>
      <set comment="kpoint 19">
       <r>   -2.4318    1.0000 </r>
       <r>    1.6012    1.0000 </r>
       <r>    5.7132    1.0000 </r>
       <r>    5.8599    1.0000 </r>
       <r>    7.0595    1.0000 </r>
       <r>    7.2638    1.0000 </r>
       <r>    9.4949    0.0000 </r>
       <r>    9.6351    0.0000 </r>
       <r>   11.0486    0.0000 </r>
       <r>   11.0774    0.0000 </r>
       <r>   11.2563    0.0000 </r>
       <r>   14.0529    0.0000 </r>
      </set>
      <set comment="kpoint 20">
       <r>   -2.3558    1.0000 </r>
       <r>    1.6750    1.0000 </r>
       <r>    4.8915    1.0000 </r>
       <r>    5.7831    1.0000 </r>
       <r>    7.1193    1.0000 </r>
       <r>    8.3547   -0.0000 </r>
       <r>    8.7756   -0.0000 </r>
       <r>    9.5652    0.0000 </r>
       <r>   11.1277    0.0000 </r>
       <r>   11.1410    0.0000 </r>
       <r>   12.2444    0.0000 </r>
       <r>   12.7337    0.0000 </r>
      </set>
      <set comment="kpoint 21">
       <r>   -2.1281    1.0000 </r>
       <r>    1.8961    1.0000 </r>
       <r>    3.5728    1.0000 </r>
       <r>    5.9930    1.0000 </r>
       <r>    7.1439    1.0000 </r>
       <r>    7.7088    1.0000 </r>
       <r>    9.7762    0.0000 </r>
       <r>   10.0165    0.0000 </r>
       <r>   11.3161    0.0000 </r>
       <r>   11.3885    0.0000 </r>
       <r>   11.3993    0.0000 </r>
       <r>   12.8547    0.0000 </r>
      </set>
      <set comment="kpoint 22">
       <r>   -1.7495    1.0000 </r>
       <r>    2.2638    1.0000 </r>
       <r>    2.3438    1.0000 </r>
       <r>    6.2122    1.0000 </r>
       <r>    6.3428    1.0000 </r>
       <r>    7.8165    1.0000 </r>
       <r>   10.1279    0.0000 </r>
       <r>   10.2036    0.0000 </r>
       <r>   11.3666    0.0000 </r>
       <r>   11.4124    0.0000 </r>
       <r>   12.0789    0.0000 </r>
       <r>   12.2244    0.0000 </r>
      </set>
      <set comment="kpoint 23">
       <r>   -1.2211    1.0000 </r>
       <r>    1.2419    1.0000 </r>
       <r>    2.7770    1.0000 </r>
       <r>    5.1632    1.0000 </r>
       <r>    6.8330    1.0000 </r>
       <r>    8.3049   -0.0000 </r>
       <r>    9.1489   -0.0000 </r>
       <r>   10.5963    0.0000 </r>
       <r>   10.6202    0.0000 </r>
       <r>   12.0495    0.0000 </r>
       <r>   12.3225    0.0000 </r>
       <r>   12.9383    0.0000 </r>
      </set>
      <set comment="kpoint 24">
       <r>   -0.5446    1.0000 </r>
       <r>    0.2774    1.0000 </r>
       <r>    3.4338    1.0000 </r>
       <r>    4.2311    1.0000 </r>
       <r>    7.4639    1.0000 </r>
       <r>    8.2358   -0.0000 </r>
       <r>    8.9474   -0.0000 </r>
       <r>    9.7210    0.0000 </r>
       <r>   11.2530    0.0000 </r>
       <r>   12.0259    0.0000 </r>
       <r>   12.6950    0.0000 </r>
       <r>   12.9078    0.0000 </r>
      </set>
      <set comment="kpoint 25">
       <r>   -1.9113    1.0000 </r>
       <r>    0.5150    1.0000 </r>
       <r>    6.1932    1.0000 </r>
       <r>    6.3390    1.0000 </r>
       <r>    7.5376    1.0000 </r>
       <r>    7.7318    1.0000 </r>
       <r>    8.4615   -0.0000 </r>
       <r>    8.6035   -0.0000 </r>
       <r>   10.0839    0.0000 </r>
       <r>   10.2799    0.0000 </r>
       <r>   13.0660    0.0000 </r>
       <r>   14.5671    0.0000 </r>
      </set>
      <set comment="kpoint 26">
       <r>   -1.8357    1.0000 </r>
       <r>    0.5894    1.0000 </r>
       <r>    5.3808    1.0000 </r>
       <r>    6.2632    1.0000 </r>
       <r>    7.4288    1.0000 </r>
       <r>    7.9250    1.0026 </r>
       <r>    8.5318   -0.0000 </r>
       <r>    8.7779   -0.0000 </r>
       <r>   10.1985    0.0000 </r>
       <r>   11.2654    0.0000 </r>
       <r>   13.1129    0.0000 </r>
       <r>   13.2178    0.0000 </r>
      </set>
      <set comment="kpoint 27">
       <r>   -1.6088    1.0000 </r>
       <r>    0.8123    1.0000 </r>
       <r>    4.0700    1.0000 </r>
       <r>    6.3649    1.0000 </r>
       <r>    6.4732    1.0000 </r>
       <r>    7.9450    1.0105 </r>
       <r>    8.7425   -0.0000 </r>
       <r>   10.0162    0.0000 </r>
       <r>   10.8767    0.0000 </r>
       <r>   11.8824    0.0000 </r>
       <r>   12.8936    0.0000 </r>
       <r>   13.0134    0.0000 </r>
      </set>
      <set comment="kpoint 28">
       <r>   -1.2316    1.0000 </r>
       <r>    1.1831    1.0000 </r>
       <r>    2.8464    1.0000 </r>
       <r>    5.1842    1.0000 </r>
       <r>    6.8234    1.0000 </r>
       <r>    8.2951   -0.0000 </r>
       <r>    9.0939   -0.0000 </r>
       <r>   10.5509    0.0000 </r>
       <r>   10.6863    0.0000 </r>
       <r>   12.1063    0.0000 </r>
       <r>   12.5697    0.0000 </r>
       <r>   12.9590    0.0000 </r>
      </set>
      <set comment="kpoint 29">
       <r>   -0.7051    1.0000 </r>
       <r>    1.7006    1.0000 </r>
       <r>    1.7489    1.0000 </r>
       <r>    4.1107    1.0000 </r>
       <r>    7.3140    1.0000 </r>
       <r>    8.8002   -0.0000 </r>
       <r>    9.5858    0.0000 </r>
       <r>    9.6313    0.0000 </r>
       <r>   11.0767    0.0000 </r>
       <r>   11.1210    0.0000 </r>
       <r>   11.9054    0.0000 </r>
       <r>   13.3614    0.0000 </r>
      </set>
      <set comment="kpoint 30">
       <r>   -0.0311    1.0000 </r>
       <r>    0.7879    1.0000 </r>
       <r>    2.3629    1.0000 </r>
       <r>    3.1677    1.0000 </r>
       <r>    7.9453    1.0107 </r>
       <r>    8.7177   -0.0000 </r>
       <r>    9.4464    0.0000 </r>
       <r>   10.2185    0.0000 </r>
       <r>   10.2245    0.0000 </r>
       <r>   10.9917    0.0000 </r>
       <r>   11.7171    0.0000 </r>
       <r>   12.4806    0.0000 </r>
      </set>
      <set comment="kpoint 31">
       <r>   -1.2451    1.0000 </r>
       <r>   -0.4353    1.0000 </r>
       <r>    6.8110    1.0000 </r>
       <r>    6.9558    1.0000 </r>
       <r>    7.5670    1.0000 </r>
       <r>    7.7105    1.0000 </r>
       <r>    8.0748    0.0462 </r>
       <r>    8.2040   -0.0000 </r>
       <r>    9.3575   -0.0000 </r>
       <r>    9.4874    0.0000 </r>
       <r>   15.1848    0.0000 </r>
       <r>   15.2330    0.0000 </r>
      </set>
      <set comment="kpoint 32">
       <r>   -1.1698    1.0000 </r>
       <r>   -0.3604    1.0000 </r>
       <r>    6.0057    1.0000 </r>
       <r>    6.7551    1.0000 </r>
       <r>    6.8811    1.0000 </r>
       <r>    7.6372    1.0000 </r>
       <r>    8.3056   -0.0000 </r>
       <r>    8.8859   -0.0000 </r>
       <r>    9.8283    0.0000 </r>
       <r>   10.4134    0.0000 </r>
       <r>   13.8382    0.0000 </r>
       <r>   14.5935    0.0000 </r>
      </set>
      <set comment="kpoint 33">
       <r>   -0.9440    1.0000 </r>
       <r>   -0.1360    1.0000 </r>
       <r>    4.7058    1.0000 </r>
       <r>    5.4759    1.0000 </r>
       <r>    7.0913    1.0000 </r>
       <r>    7.8477    1.0000 </r>
       <r>    8.5539   -0.0000 </r>
       <r>    9.2911   -0.0000 </r>
       <r>   11.3280    0.0000 </r>
       <r>   12.0444    0.0000 </r>
       <r>   12.5027    0.0000 </r>
       <r>   13.2595    0.0000 </r>
      </set>
      <set comment="kpoint 34">
       <r>   -0.5685    1.0000 </r>
       <r>    0.2374    1.0000 </r>
       <r>    3.4898    1.0000 </r>
       <r>    4.2709    1.0000 </r>
       <r>    7.4419    1.0000 </r>
       <r>    8.1986   -0.0000 </r>
       <r>    8.9249   -0.0000 </r>
       <r>    9.6847    0.0000 </r>
       <r>   11.3067    0.0000 </r>
       <r>   12.0645    0.0000 </r>
       <r>   12.7477    0.0000 </r>
       <r>   13.1500    0.0000 </r>
      </set>
      <set comment="kpoint 35">
       <r>   -0.0445    1.0000 </r>
       <r>    0.7584    1.0000 </r>
       <r>    2.3979    1.0000 </r>
       <r>    3.1864    1.0000 </r>
       <r>    7.9329    1.0047 </r>
       <r>    8.6901   -0.0000 </r>
       <r>    9.4336    0.0000 </r>
       <r>   10.1966    0.0000 </r>
       <r>   10.2515    0.0000 </r>
       <r>   11.0096    0.0000 </r>
       <r>   11.7504    0.0000 </r>
       <r>   12.4988    0.0000 </r>
      </set>
      <set comment="kpoint 36">
       <r>    0.6263    1.0000 </r>
       <r>    1.4254    1.0000 </r>
       <r>    1.4416    1.0000 </r>
       <r>    2.2359    1.0000 </r>
       <r>    8.5647   -0.0000 </r>
       <r>    9.3224   -0.0000 </r>
       <r>    9.3375   -0.0000 </r>
       <r>   10.0787    0.0000 </r>
       <r>   10.0956    0.0000 </r>
       <r>   10.8388    0.0000 </r>
       <r>   10.8543    0.0000 </r>
       <r>   11.6091    0.0000 </r>
      </set>
      <set comment="kpoint 37">
       <r>   -2.9541    1.0000 </r>
       <r>    4.1910    1.0000 </r>
       <r>    4.1910    1.0000 </r>
       <r>    5.3812    1.0000 </r>
       <r>    6.7698    1.0000 </r>
       <r>    7.5936    1.0000 </r>
       <r>    7.5936    1.0000 </r>
       <r>   11.0341    0.0000 </r>
       <r>   12.1799    0.0000 </r>
       <r>   12.1799    0.0000 </r>
       <r>   13.3822    0.0000 </r>
       <r>   13.3823    0.0000 </r>
      </set>
      <set comment="kpoint 38">
       <r>   -2.8779    1.0000 </r>
       <r>    4.2628    1.0000 </r>
       <r>    4.2628    1.0000 </r>
       <r>    4.4003    1.0000 </r>
       <r>    7.6640    1.0000 </r>
       <r>    7.6640    1.0000 </r>
       <r>    7.8808    1.0000 </r>
       <r>   11.1057    0.0000 </r>
       <r>   11.2361    0.0000 </r>
       <r>   11.2361    0.0000 </r>
       <r>   13.7972    0.0000 </r>
       <r>   13.9787    0.0000 </r>
      </set>
      <set comment="kpoint 39">
       <r>   -2.6493    1.0000 </r>
       <r>    3.0737    1.0000 </r>
       <r>    4.4781    1.0000 </r>
       <r>    4.4781    1.0000 </r>
       <r>    7.8716    1.0000 </r>
       <r>    7.8716    1.0000 </r>
       <r>    9.5953    0.0000 </r>
       <r>    9.9711    0.0000 </r>
       <r>    9.9711    0.0000 </r>
       <r>   11.3231    0.0000 </r>
       <r>   13.2445    0.0000 </r>
       <r>   13.2445    0.0000 </r>
      </set>
      <set comment="kpoint 40">
       <r>   -2.2693    1.0000 </r>
       <r>    1.8393    1.0000 </r>
       <r>    4.8360    1.0000 </r>
       <r>    4.8360    1.0000 </r>
       <r>    8.1740   -0.0005 </r>
       <r>    8.1740   -0.0005 </r>
       <r>    8.8421   -0.0000 </r>
       <r>    8.8421   -0.0000 </r>
       <r>   11.4014    0.0000 </r>
       <r>   11.7579    0.0000 </r>
       <r>   12.1870    0.0000 </r>
       <r>   12.1870    0.0000 </r>
      </set>
      <set comment="kpoint 41">
       <r>   -1.7389    1.0000 </r>
       <r>    0.7331    1.0000 </r>
       <r>    5.3347    1.0000 </r>
       <r>    5.3347    1.0000 </r>
       <r>    7.6682    1.0000 </r>
       <r>    7.6682    1.0000 </r>
       <r>    8.7789   -0.0000 </r>
       <r>    8.7789   -0.0000 </r>
       <r>   11.1949    0.0000 </r>
       <r>   11.1949    0.0000 </r>
       <r>   12.1311    0.0000 </r>
       <r>   13.5377    0.0000 </r>
      </set>
      <set comment="kpoint 42">
       <r>   -1.0600    1.0000 </r>
       <r>   -0.2349    1.0000 </r>
       <r>    5.9641    1.0000 </r>
       <r>    5.9641    1.0000 </r>
       <r>    6.7814    1.0000 </r>
       <r>    6.7814    1.0000 </r>
       <r>    9.3142   -0.0000 </r>
       <r>    9.3142   -0.0000 </r>
       <r>   10.3779    0.0000 </r>
       <r>   10.3779    0.0000 </r>
       <r>   12.7694    0.0000 </r>
       <r>   13.5377    0.0000 </r>
      </set>
      <set comment="kpoint 43">
       <r>   -2.7300    1.0000 </r>
       <r>    2.8858    1.0000 </r>
       <r>    4.4022    1.0000 </r>
       <r>    5.5863    1.0000 </r>
       <r>    6.9810    1.0000 </r>
       <r>    7.8017    1.0000 </r>
       <r>    9.2855   -0.0000 </r>
       <r>    9.7883    0.0000 </r>
       <r>   10.8740    0.0000 </r>
       <r>   12.3832    0.0000 </r>
       <r>   12.3875    0.0000 </r>
       <r>   13.0567    0.0000 </r>
      </set>
      <set comment="kpoint 44">
       <r>   -2.6539    1.0000 </r>
       <r>    2.9588    1.0000 </r>
       <r>    4.4738    1.0000 </r>
       <r>    4.6110    1.0000 </r>
       <r>    7.8677    1.0000 </r>
       <r>    8.0811    0.0074 </r>
       <r>    9.3513   -0.0000 </r>
       <r>    9.8650    0.0000 </r>
       <r>    9.9923    0.0000 </r>
       <r>   11.4471    0.0000 </r>
       <r>   13.1250    0.0000 </r>
       <r>   13.3439    0.0000 </r>
      </set>
      <set comment="kpoint 45">
       <r>   -2.4257    1.0000 </r>
       <r>    3.1774    1.0000 </r>
       <r>    3.2878    1.0000 </r>
       <r>    4.6885    1.0000 </r>
       <r>    8.0291    0.6893 </r>
       <r>    8.7860   -0.0000 </r>
       <r>    9.5201    0.0000 </r>
       <r>    9.7107    0.0000 </r>
       <r>   10.1619    0.0000 </r>
       <r>   10.2162    0.0000 </r>
       <r>   13.3305    0.0000 </r>
       <r>   13.4452    0.0000 </r>
      </set>
      <set comment="kpoint 46">
       <r>   -2.0463    1.0000 </r>
       <r>    2.0557    1.0000 </r>
       <r>    3.5411    1.0000 </r>
       <r>    5.0447    1.0000 </r>
       <r>    7.4599    1.0000 </r>
       <r>    8.5308   -0.0000 </r>
       <r>    8.9341   -0.0000 </r>
       <r>    9.9620    0.0000 </r>
       <r>   10.3781    0.0000 </r>
       <r>   11.7261    0.0000 </r>
       <r>   12.4003    0.0000 </r>
       <r>   13.6769    0.0000 </r>
      </set>
      <set comment="kpoint 47">
       <r>   -1.5167    1.0000 </r>
       <r>    0.9514    1.0000 </r>
       <r>    4.0483    1.0000 </r>
       <r>    5.5331    1.0000 </r>
       <r>    6.4403    1.0000 </r>
       <r>    7.9011    1.0003 </r>
       <r>    8.9961   -0.0000 </r>
       <r>   10.3699    0.0000 </r>
       <r>   10.8852    0.0000 </r>
       <r>   11.4578    0.0000 </r>
       <r>   12.7888    0.0000 </r>
       <r>   13.1979    0.0000 </r>
      </set>
      <set comment="kpoint 48">
       <r>   -0.8389    1.0000 </r>
       <r>   -0.0151    1.0000 </r>
       <r>    4.6961    1.0000 </r>
       <r>    5.4696    1.0000 </r>
       <r>    6.2221    1.0000 </r>
       <r>    6.9870    1.0000 </r>
       <r>    9.6144    0.0000 </r>
       <r>   10.3029    0.0000 </r>
       <r>   11.2515    0.0000 </r>
       <r>   11.5212    0.0000 </r>
       <r>   11.9271    0.0000 </r>
       <r>   12.2925    0.0000 </r>
      </set>
      <set comment="kpoint 49">
       <r>   -2.3573    1.0000 </r>
       <r>    1.6735    1.0000 </r>
       <r>    4.7535    1.0000 </r>
       <r>    5.9283    1.0000 </r>
       <r>    7.3152    1.0000 </r>
       <r>    8.1422   -0.0072 </r>
       <r>    8.6519   -0.0000 </r>
       <r>    9.7040    0.0000 </r>
       <r>   11.1400    0.0000 </r>
       <r>   11.3312    0.0000 </r>
       <r>   12.0250    0.0000 </r>
       <r>   12.7330    0.0000 </r>
      </set>
      <set comment="kpoint 50">
       <r>   -2.2814    1.0000 </r>
       <r>    1.7473    1.0000 </r>
       <r>    4.8248    1.0000 </r>
       <r>    4.9612    1.0000 </r>
       <r>    8.1693   -0.0008 </r>
       <r>    8.3263   -0.0000 </r>
       <r>    8.8071   -0.0000 </r>
       <r>    8.8803   -0.0000 </r>
       <r>   11.1789    0.0000 </r>
       <r>   11.8198    0.0000 </r>
       <r>   12.0972    0.0000 </r>
       <r>   12.3144    0.0000 </r>
      </set>
      <set comment="kpoint 51">
       <r>   -2.0538    1.0000 </r>
       <r>    1.9683    1.0000 </r>
       <r>    3.6439    1.0000 </r>
       <r>    5.0377    1.0000 </r>
       <r>    7.4810    1.0000 </r>
       <r>    8.5253   -0.0000 </r>
       <r>    8.8599   -0.0000 </r>
       <r>   10.1838    0.0000 </r>
       <r>   10.4673    0.0000 </r>
       <r>   11.4621    0.0000 </r>
       <r>   12.3181    0.0000 </r>
       <r>   13.7846    0.0000 </r>
      </set>
      <set comment="kpoint 52">
       <r>   -1.6754    1.0000 </r>
       <r>    2.3358    1.0000 </r>
       <r>    2.4157    1.0000 </r>
       <r>    5.3841    1.0000 </r>
       <r>    6.3311    1.0000 </r>
       <r>    8.8553   -0.0000 </r>
       <r>    9.2303   -0.0000 </r>
       <r>    9.3050   -0.0000 </r>
       <r>   11.7401    0.0000 </r>
       <r>   11.9689    0.0000 </r>
       <r>   12.7433    0.0000 </r>
       <r>   12.7842    0.0000 </r>
      </set>
      <set comment="kpoint 53">
       <r>   -1.1472    1.0000 </r>
       <r>    1.3144    1.0000 </r>
       <r>    2.8487    1.0000 </r>
       <r>    5.2181    1.0000 </r>
       <r>    5.9328    1.0000 </r>
       <r>    8.2541   -0.0000 </r>
       <r>    9.3489   -0.0000 </r>
       <r>    9.7296    0.0000 </r>
       <r>   11.5614    0.0000 </r>
       <r>   12.0504    0.0000 </r>
       <r>   12.4420    0.0000 </r>
       <r>   13.0318    0.0000 </r>
      </set>
      <set comment="kpoint 54">
       <r>   -0.4712    1.0000 </r>
       <r>    0.3505    1.0000 </r>
       <r>    3.5048    1.0000 </r>
       <r>    4.3004    1.0000 </r>
       <r>    6.5565    1.0000 </r>
       <r>    7.3356    1.0000 </r>
       <r>    9.9820    0.0000 </r>
       <r>   10.3663    0.0000 </r>
       <r>   10.7401    0.0000 </r>
       <r>   11.1405    0.0000 </r>
       <r>   12.9824    0.0000 </r>
       <r>   13.6954    0.0000 </r>
      </set>
      <set comment="kpoint 55">
       <r>   -1.8372    1.0000 </r>
       <r>    0.5879    1.0000 </r>
       <r>    5.2437    1.0000 </r>
       <r>    6.4075    1.0000 </r>
       <r>    7.4225    1.0000 </r>
       <r>    7.9992    0.9971 </r>
       <r>    8.5901   -0.0000 </r>
       <r>    8.6723   -0.0000 </r>
       <r>   10.3755    0.0000 </r>
       <r>   11.0500    0.0000 </r>
       <r>   13.1137    0.0000 </r>
       <r>   13.2157    0.0000 </r>
      </set>
      <set comment="kpoint 56">
       <r>   -1.7615    1.0000 </r>
       <r>    0.6622    1.0000 </r>
       <r>    5.3138    1.0000 </r>
       <r>    5.4490    1.0000 </r>
       <r>    7.6088    1.0000 </r>
       <r>    7.7309    1.0000 </r>
       <r>    8.7630   -0.0000 </r>
       <r>    8.9620   -0.0000 </r>
       <r>   11.1317    0.0000 </r>
       <r>   11.3418    0.0000 </r>
       <r>   12.2347    0.0000 </r>
       <r>   13.2285    0.0000 </r>
      </set>
      <set comment="kpoint 57">
       <r>   -1.5348    1.0000 </r>
       <r>    0.8851    1.0000 </r>
       <r>    4.1405    1.0000 </r>
       <r>    5.5175    1.0000 </r>
       <r>    6.4825    1.0000 </r>
       <r>    7.8396    1.0000 </r>
       <r>    8.9801   -0.0000 </r>
       <r>   10.5565    0.0000 </r>
       <r>   10.9724    0.0000 </r>
       <r>   11.4306    0.0000 </r>
       <r>   12.9629    0.0000 </r>
       <r>   13.2406    0.0000 </r>
      </set>
      <set comment="kpoint 58">
       <r>   -1.1577    1.0000 </r>
       <r>    1.2557    1.0000 </r>
       <r>    2.9180    1.0000 </r>
       <r>    5.2379    1.0000 </r>
       <r>    5.9241    1.0000 </r>
       <r>    8.1987   -0.0000 </r>
       <r>    9.3392   -0.0000 </r>
       <r>    9.7955    0.0000 </r>
       <r>   11.5379    0.0000 </r>
       <r>   12.0708    0.0000 </r>
       <r>   12.6667    0.0000 </r>
       <r>   13.0709    0.0000 </r>
      </set>
      <set comment="kpoint 59">
       <r>   -0.6315    1.0000 </r>
       <r>    1.7729    1.0000 </r>
       <r>    1.8211    1.0000 </r>
       <r>    4.1802    1.0000 </r>
       <r>    6.4048    1.0000 </r>
       <r>    8.6968   -0.0000 </r>
       <r>    8.7426   -0.0000 </r>
       <r>    9.8387    0.0000 </r>
       <r>   11.0246    0.0000 </r>
       <r>   12.0825    0.0000 </r>
       <r>   12.1254    0.0000 </r>
       <r>   14.3143    0.0000 </r>
      </set>
      <set comment="kpoint 60">
       <r>    0.0421    1.0000 </r>
       <r>    0.8607    1.0000 </r>
       <r>    2.4349    1.0000 </r>
       <r>    3.2389    1.0000 </r>
       <r>    7.0432    1.0000 </r>
       <r>    7.8237    1.0000 </r>
       <r>    9.3346   -0.0000 </r>
       <r>   10.1112    0.0000 </r>
       <r>   10.4751    0.0000 </r>
       <r>   11.2418    0.0000 </r>
       <r>   12.7190    0.0000 </r>
       <r>   13.4771    0.0000 </r>
      </set>
      <set comment="kpoint 61">
       <r>   -1.1713    1.0000 </r>
       <r>   -0.3619    1.0000 </r>
       <r>    5.8703    1.0000 </r>
       <r>    6.6256    1.0000 </r>
       <r>    7.0244    1.0000 </r>
       <r>    7.7792    1.0000 </r>
       <r>    8.4869   -0.0000 </r>
       <r>    8.9235   -0.0000 </r>
       <r>    9.7779    0.0000 </r>
       <r>   10.2137    0.0000 </r>
       <r>   13.8344    0.0000 </r>
       <r>   14.5875    0.0000 </r>
      </set>
      <set comment="kpoint 62">
       <r>   -1.0960    1.0000 </r>
       <r>   -0.2871    1.0000 </r>
       <r>    5.9329    1.0000 </r>
       <r>    6.0611    1.0000 </r>
       <r>    6.7373    1.0000 </r>
       <r>    6.8634    1.0000 </r>
       <r>    9.3022   -0.0000 </r>
       <r>    9.4581    0.0000 </r>
       <r>   10.3664    0.0000 </r>
       <r>   10.5237    0.0000 </r>
       <r>   12.8660    0.0000 </r>
       <r>   13.6196    0.0000 </r>
      </set>
      <set comment="kpoint 63">
       <r>   -0.8703    1.0000 </r>
       <r>   -0.0627    1.0000 </r>
       <r>    4.7745    1.0000 </r>
       <r>    5.5287    1.0000 </r>
       <r>    6.1961    1.0000 </r>
       <r>    6.9428    1.0000 </r>
       <r>    9.5880    0.0000 </r>
       <r>   10.2866    0.0000 </r>
       <r>   11.4339    0.0000 </r>
       <r>   11.5969    0.0000 </r>
       <r>   12.1192    0.0000 </r>
       <r>   12.3531    0.0000 </r>
      </set>
      <set comment="kpoint 64">
       <r>   -0.4950    1.0000 </r>
       <r>    0.3105    1.0000 </r>
       <r>    3.5607    1.0000 </r>
       <r>    4.3401    1.0000 </r>
       <r>    6.5343    1.0000 </r>
       <r>    7.2980    1.0000 </r>
       <r>    9.9601    0.0000 </r>
       <r>   10.4199    0.0000 </r>
       <r>   10.7058    0.0000 </r>
       <r>   11.1789    0.0000 </r>
       <r>   13.2226    0.0000 </r>
       <r>   13.7411    0.0000 </r>
      </set>
      <set comment="kpoint 65">
       <r>    0.0287    1.0000 </r>
       <r>    0.8312    1.0000 </r>
       <r>    2.4698    1.0000 </r>
       <r>    3.2577    1.0000 </r>
       <r>    7.0306    1.0000 </r>
       <r>    7.7958    1.0000 </r>
       <r>    9.3679   -0.0000 </r>
       <r>   10.1292    0.0000 </r>
       <r>   10.4625    0.0000 </r>
       <r>   11.2144    0.0000 </r>
       <r>   12.7524    0.0000 </r>
       <r>   13.4957    0.0000 </r>
      </set>
      <set comment="kpoint 66">
       <r>    0.6992    1.0000 </r>
       <r>    1.4979    1.0000 </r>
       <r>    1.5140    1.0000 </r>
       <r>    2.3080    1.0000 </r>
       <r>    7.6701    1.0000 </r>
       <r>    8.4347   -0.0000 </r>
       <r>    8.4500   -0.0000 </r>
       <r>    9.2132   -0.0000 </r>
       <r>   11.0987    0.0000 </r>
       <r>   11.8495    0.0000 </r>
       <r>   11.8650    0.0000 </r>
       <r>   12.6123    0.0000 </r>
      </set>
      <set comment="kpoint 67">
       <r>   -2.5063    1.0000 </r>
       <r>    3.1003    1.0000 </r>
       <r>    3.1003    1.0000 </r>
       <r>    5.7914    1.0000 </r>
       <r>    7.1716    1.0000 </r>
       <r>    8.5741   -0.0000 </r>
       <r>    9.4841    0.0000 </r>
       <r>    9.4841    0.0000 </r>
       <r>   11.0808    0.0000 </r>
       <r>   11.0808    0.0000 </r>
       <r>   12.5917    0.0000 </r>
       <r>   12.5917    0.0000 </r>
      </set>
      <set comment="kpoint 68">
       <r>   -2.4303    1.0000 </r>
       <r>    3.1731    1.0000 </r>
       <r>    3.1731    1.0000 </r>
       <r>    4.8210    1.0000 </r>
       <r>    8.1871   -0.0001 </r>
       <r>    8.7313   -0.0000 </r>
       <r>    9.5185    0.0000 </r>
       <r>    9.5185    0.0000 </r>
       <r>   10.2352    0.0000 </r>
       <r>   10.2352    0.0000 </r>
       <r>   13.5443    0.0000 </r>
       <r>   13.5443    0.0000 </r>
      </set>
      <set comment="kpoint 69">
       <r>   -2.2025    1.0000 </r>
       <r>    3.3914    1.0000 </r>
       <r>    3.3914    1.0000 </r>
       <r>    3.5015    1.0000 </r>
       <r>    8.7663   -0.0000 </r>
       <r>    8.8591   -0.0000 </r>
       <r>    8.8591   -0.0000 </r>
       <r>    9.8482    0.0000 </r>
       <r>    9.8482    0.0000 </r>
       <r>   10.0776    0.0000 </r>
       <r>   14.1638    0.0000 </r>
       <r>   14.3738    0.0000 </r>
      </set>
      <set comment="kpoint 70">
       <r>   -1.8236    1.0000 </r>
       <r>    2.2718    1.0000 </r>
       <r>    3.7541    1.0000 </r>
       <r>    3.7541    1.0000 </r>
       <r>    7.7032    1.0000 </r>
       <r>    7.7032    1.0000 </r>
       <r>    9.1421   -0.0000 </r>
       <r>   10.1720    0.0000 </r>
       <r>   10.1720    0.0000 </r>
       <r>   11.9386    0.0000 </r>
       <r>   13.0050    0.0000 </r>
       <r>   13.9336    0.0000 </r>
      </set>
      <set comment="kpoint 71">
       <r>   -1.2949    1.0000 </r>
       <r>    1.1693    1.0000 </r>
       <r>    4.2591    1.0000 </r>
       <r>    4.2591    1.0000 </r>
       <r>    6.6487    1.0000 </r>
       <r>    6.6487    1.0000 </r>
       <r>    9.6434    0.0000 </r>
       <r>   10.6479    0.0000 </r>
       <r>   10.6479    0.0000 </r>
       <r>   11.9655    0.0000 </r>
       <r>   13.0006    0.0000 </r>
       <r>   13.0006    0.0000 </r>
      </set>
      <set comment="kpoint 72">
       <r>   -0.6181    1.0000 </r>
       <r>    0.2043    1.0000 </r>
       <r>    4.8933    1.0000 </r>
       <r>    4.8933    1.0000 </r>
       <r>    5.7370    1.0000 </r>
       <r>    5.7370    1.0000 </r>
       <r>   10.2813    0.0000 </r>
       <r>   11.0561    0.0000 </r>
       <r>   11.2130    0.0000 </r>
       <r>   11.2130    0.0000 </r>
       <r>   12.1877    0.0000 </r>
       <r>   12.1877    0.0000 </r>
      </set>
      <set comment="kpoint 73">
       <r>   -2.1342    1.0000 </r>
       <r>    1.8903    1.0000 </r>
       <r>    3.4570    1.0000 </r>
       <r>    6.1336    1.0000 </r>
       <r>    7.1645    1.0000 </r>
       <r>    7.7783    1.0000 </r>
       <r>    9.7949    0.0000 </r>
       <r>    9.9105    0.0000 </r>
       <r>   11.3145    0.0000 </r>
       <r>   11.4254    0.0000 </r>
       <r>   11.5676    0.0000 </r>
       <r>   12.9505    0.0000 </r>
      </set>
      <set comment="kpoint 74">
       <r>   -2.0584    1.0000 </r>
       <r>    1.9639    1.0000 </r>
       <r>    3.5296    1.0000 </r>
       <r>    5.1692    1.0000 </r>
       <r>    7.3838    1.0000 </r>
       <r>    8.7253   -0.0000 </r>
       <r>    8.9767   -0.0000 </r>
       <r>    9.9540    0.0000 </r>
       <r>   10.4880    0.0000 </r>
       <r>   11.4591    0.0000 </r>
       <r>   12.5265    0.0000 </r>
       <r>   13.6316    0.0000 </r>
      </set>
      <set comment="kpoint 75">
       <r>   -1.8311    1.0000 </r>
       <r>    2.1845    1.0000 </r>
       <r>    3.7470    1.0000 </r>
       <r>    3.8566    1.0000 </r>
       <r>    7.6214    1.0000 </r>
       <r>    7.7257    1.0000 </r>
       <r>    9.2389   -0.0000 </r>
       <r>   10.1654    0.0000 </r>
       <r>   10.4047    0.0000 </r>
       <r>   11.6647    0.0000 </r>
       <r>   13.0269    0.0000 </r>
       <r>   13.8372    0.0000 </r>
      </set>
      <set comment="kpoint 76">
       <r>   -1.4533    1.0000 </r>
       <r>    2.5514    1.0000 </r>
       <r>    2.6312    1.0000 </r>
       <r>    4.1074    1.0000 </r>
       <r>    6.5407    1.0000 </r>
       <r>    7.9833    1.0344 </r>
       <r>    8.0594    0.2060 </r>
       <r>   10.5180    0.0000 </r>
       <r>   11.8615    0.0000 </r>
       <r>   12.0031    0.0000 </r>
       <r>   12.2689    0.0000 </r>
       <r>   14.1814    0.0000 </r>
      </set>
      <set comment="kpoint 77">
       <r>   -0.9260    1.0000 </r>
       <r>    1.5318    1.0000 </r>
       <r>    3.0632    1.0000 </r>
       <r>    4.5998    1.0000 </r>
       <r>    5.4863    1.0000 </r>
       <r>    6.9997    1.0000 </r>
       <r>    8.4837   -0.0000 </r>
       <r>   10.8164    0.0000 </r>
       <r>   11.0075    0.0000 </r>
       <r>   12.4365    0.0000 </r>
       <r>   13.3815    0.0000 </r>
       <r>   14.2086    0.0000 </r>
      </set>
      <set comment="kpoint 78">
       <r>   -0.2510    1.0000 </r>
       <r>    0.5694    1.0000 </r>
       <r>    3.7170    1.0000 </r>
       <r>    4.4982    1.0000 </r>
       <r>    5.3010    1.0000 </r>
       <r>    6.0744    1.0000 </r>
       <r>    9.1238   -0.0000 </r>
       <r>    9.9022    0.0000 </r>
       <r>   11.6253    0.0000 </r>
       <r>   12.3269    0.0000 </r>
       <r>   13.2344    0.0000 </r>
       <r>   13.9127    0.0000 </r>
      </set>
      <set comment="kpoint 79">
       <r>   -1.6148    1.0000 </r>
       <r>    0.8064    1.0000 </r>
       <r>    3.9548    1.0000 </r>
       <r>    6.2592    1.0000 </r>
       <r>    6.6130    1.0000 </r>
       <r>    8.1391   -0.0088 </r>
       <r>    8.8785   -0.0000 </r>
       <r>   10.0284    0.0000 </r>
       <r>   10.8205    0.0000 </r>
       <r>   11.9074    0.0000 </r>
       <r>   12.6467    0.0000 </r>
       <r>   13.0673    0.0000 </r>
      </set>
      <set comment="kpoint 80">
       <r>   -1.5393    1.0000 </r>
       <r>    0.8806    1.0000 </r>
       <r>    4.0269    1.0000 </r>
       <r>    5.6426    1.0000 </r>
       <r>    6.3790    1.0000 </r>
       <r>    7.9665    1.0285 </r>
       <r>    9.1896   -0.0000 </r>
       <r>   10.3630    0.0000 </r>
       <r>   10.9934    0.0000 </r>
       <r>   11.5930    0.0000 </r>
       <r>   12.7183    0.0000 </r>
       <r>   13.2606    0.0000 </r>
      </set>
      <set comment="kpoint 81">
       <r>   -1.3130    1.0000 </r>
       <r>    1.1031    1.0000 </r>
       <r>    4.2421    1.0000 </r>
       <r>    4.3507    1.0000 </r>
       <r>    6.5862    1.0000 </r>
       <r>    6.6923    1.0000 </r>
       <r>    9.7316    0.0000 </r>
       <r>   10.6332    0.0000 </r>
       <r>   10.8688    0.0000 </r>
       <r>   12.0078    0.0000 </r>
       <r>   12.9371    0.0000 </r>
       <r>   13.1729    0.0000 </r>
      </set>
      <set comment="kpoint 82">
       <r>   -0.9365    1.0000 </r>
       <r>    1.4732    1.0000 </r>
       <r>    3.1324    1.0000 </r>
       <r>    4.5906    1.0000 </r>
       <r>    5.5066    1.0000 </r>
       <r>    6.9437    1.0000 </r>
       <r>    8.5503   -0.0000 </r>
       <r>   10.8368    0.0000 </r>
       <r>   10.9981    0.0000 </r>
       <r>   12.6581    0.0000 </r>
       <r>   13.3582    0.0000 </r>
       <r>   13.9416    0.0000 </r>
      </set>
      <set comment="kpoint 83">
       <r>   -0.4111    1.0000 </r>
       <r>    1.9896    1.0000 </r>
       <r>    2.0377    1.0000 </r>
       <r>    4.3776    1.0000 </r>
       <r>    5.1478    1.0000 </r>
       <r>    7.4444    1.0000 </r>
       <r>    7.4907    1.0000 </r>
       <r>    9.7865    0.0000 </r>
       <r>   11.4927    0.0000 </r>
       <r>   13.6667    0.0000 </r>
       <r>   13.6955    0.0000 </r>
       <r>   14.5463    0.0000 </r>
      </set>
      <set comment="kpoint 84">
       <r>    0.2615    1.0000 </r>
       <r>    1.0789    1.0000 </r>
       <r>    2.6503    1.0000 </r>
       <r>    3.4518    1.0000 </r>
       <r>    5.7783    1.0000 </r>
       <r>    6.5646    1.0000 </r>
       <r>    8.0866   -0.0146 </r>
       <r>    8.8682   -0.0000 </r>
       <r>   12.1183    0.0000 </r>
       <r>   12.8662    0.0000 </r>
       <r>   14.3111    0.0000 </r>
       <r>   15.0577    0.0000 </r>
      </set>
      <set comment="kpoint 85">
       <r>   -0.9500    1.0000 </r>
       <r>   -0.1419    1.0000 </r>
       <r>    4.5916    1.0000 </r>
       <r>    5.3635    1.0000 </r>
       <r>    7.2301    1.0000 </r>
       <r>    7.9852    1.0331 </r>
       <r>    8.7508   -0.0000 </r>
       <r>    9.4737    0.0000 </r>
       <r>   11.1003    0.0000 </r>
       <r>   11.8007    0.0000 </r>
       <r>   12.5263    0.0000 </r>
       <r>   13.2815    0.0000 </r>
      </set>
      <set comment="kpoint 86">
       <r>   -0.8748    1.0000 </r>
       <r>   -0.0672    1.0000 </r>
       <r>    4.6622    1.0000 </r>
       <r>    5.4244    1.0000 </r>
       <r>    6.3189    1.0000 </r>
       <r>    7.0713    1.0000 </r>
       <r>    9.7927    0.0000 </r>
       <r>   10.4347    0.0000 </r>
       <r>   11.2530    0.0000 </r>
       <r>   11.6176    0.0000 </r>
       <r>   11.8809    0.0000 </r>
       <r>   12.3735    0.0000 </r>
      </set>
      <set comment="kpoint 87">
       <r>   -0.6495    1.0000 </r>
       <r>    0.1569    1.0000 </r>
       <r>    4.8658    1.0000 </r>
       <r>    4.9676    1.0000 </r>
       <r>    5.6961    1.0000 </r>
       <r>    5.7971    1.0000 </r>
       <r>   10.3571    0.0000 </r>
       <r>   11.1165    0.0000 </r>
       <r>   11.2024    0.0000 </r>
       <r>   11.3898    0.0000 </r>
       <r>   12.1762    0.0000 </r>
       <r>   12.3637    0.0000 </r>
      </set>
      <set comment="kpoint 88">
       <r>   -0.2748    1.0000 </r>
       <r>    0.5295    1.0000 </r>
       <r>    3.7726    1.0000 </r>
       <r>    4.5358    1.0000 </r>
       <r>    5.2804    1.0000 </r>
       <r>    6.0365    1.0000 </r>
       <r>    9.1777   -0.0000 </r>
       <r>    9.9406    0.0000 </r>
       <r>   11.6051    0.0000 </r>
       <r>   12.3104    0.0000 </r>
       <r>   13.4558    0.0000 </r>
       <r>   14.1341    0.0000 </r>
      </set>
      <set comment="kpoint 89">
       <r>    0.2482    1.0000 </r>
       <r>    1.0494    1.0000 </r>
       <r>    2.6851    1.0000 </r>
       <r>    3.4704    1.0000 </r>
       <r>    5.7656    1.0000 </r>
       <r>    6.5364    1.0000 </r>
       <r>    8.1201   -0.0235 </r>
       <r>    8.8863   -0.0000 </r>
       <r>   12.1060    0.0000 </r>
       <r>   12.8398    0.0000 </r>
       <r>   14.3459    0.0000 </r>
       <r>   15.0776    0.0000 </r>
      </set>
      <set comment="kpoint 90">
       <r>    0.9176    1.0000 </r>
       <r>    1.7151    1.0000 </r>
       <r>    1.7312    1.0000 </r>
       <r>    2.5236    1.0000 </r>
       <r>    6.4094    1.0000 </r>
       <r>    7.1801    1.0000 </r>
       <r>    7.1956    1.0000 </r>
       <r>    7.9644    1.0266 </r>
       <r>   12.7331    0.0000 </r>
       <r>   13.4689    0.0000 </r>
       <r>   13.4846    0.0000 </r>
       <r>   14.2182    0.0000 </r>
      </set>
      <set comment="kpoint 91">
       <r>   -1.7630    1.0000 </r>
       <r>    2.2507    1.0000 </r>
       <r>    2.2507    1.0000 </r>
       <r>    6.1289    1.0000 </r>
       <r>    6.4760    1.0000 </r>
       <r>    8.0051    0.9632 </r>
       <r>   10.2547    0.0000 </r>
       <r>   10.2547    0.0000 </r>
       <r>   11.4182    0.0000 </r>
       <r>   11.4182    0.0000 </r>
       <r>   12.1349    0.0000 </r>
       <r>   12.1349    0.0000 </r>
      </set>
      <set comment="kpoint 92">
       <r>   -1.6874    1.0000 </r>
       <r>    2.3242    1.0000 </r>
       <r>    2.3242    1.0000 </r>
       <r>    5.5030    1.0000 </r>
       <r>    6.2498    1.0000 </r>
       <r>    9.0598   -0.0000 </r>
       <r>    9.3491   -0.0000 </r>
       <r>    9.3491   -0.0000 </r>
       <r>   11.7384    0.0000 </r>
       <r>   11.7384    0.0000 </r>
       <r>   12.9017    0.0000 </r>
       <r>   12.9017    0.0000 </r>
      </set>
      <set comment="kpoint 93">
       <r>   -1.4608    1.0000 </r>
       <r>    2.5442    1.0000 </r>
       <r>    2.5442    1.0000 </r>
       <r>    4.2091    1.0000 </r>
       <r>    6.4575    1.0000 </r>
       <r>    8.0820    0.0033 </r>
       <r>    8.0820    0.0033 </r>
       <r>   10.7526    0.0000 </r>
       <r>   11.8834    0.0000 </r>
       <r>   11.9973    0.0000 </r>
       <r>   11.9973    0.0000 </r>
       <r>   14.4085    0.0000 </r>
      </set>
      <set comment="kpoint 94">
       <r>   -1.0839    1.0000 </r>
       <r>    2.9099    1.0000 </r>
       <r>    2.9099    1.0000 </r>
       <r>    2.9893    1.0000 </r>
       <r>    6.8155    1.0000 </r>
       <r>    6.8925    1.0000 </r>
       <r>    6.8925    1.0000 </r>
       <r>   10.7125    0.0000 </r>
       <r>   12.3530    0.0000 </r>
       <r>   12.3530    0.0000 </r>
       <r>   12.6212    0.0000 </r>
       <r>   15.3395    0.0000 </r>
      </set>
      <set comment="kpoint 95">
       <r>   -0.5580    1.0000 </r>
       <r>    1.8934    1.0000 </r>
       <r>    3.4192    1.0000 </r>
       <r>    3.4192    1.0000 </r>
       <r>    5.8259    1.0000 </r>
       <r>    5.8259    1.0000 </r>
       <r>    7.3170    1.0000 </r>
       <r>    9.6618    0.0000 </r>
       <r>   12.8317    0.0000 </r>
       <r>   12.8317    0.0000 </r>
       <r>   14.6141    0.0000 </r>
       <r>   15.0414    0.0000 </r>
      </set>
      <set comment="kpoint 96">
       <r>    0.1153    1.0000 </r>
       <r>    0.9336    1.0000 </r>
       <r>    4.0601    1.0000 </r>
       <r>    4.0601    1.0000 </r>
       <r>    4.9046    1.0000 </r>
       <r>    4.9046    1.0000 </r>
       <r>    7.9600    1.0225 </r>
       <r>    8.7426   -0.0000 </r>
       <r>   13.4024    0.0000 </r>
       <r>   13.4024    0.0000 </r>
       <r>   14.2846    0.0000 </r>
       <r>   14.2846    0.0000 </r>
      </set>
      <set comment="kpoint 97">
       <r>   -1.2451    1.0000 </r>
       <r>    1.1698    1.0000 </r>
       <r>    2.7538    1.0000 </r>
       <r>    5.0947    1.0000 </r>
       <r>    6.9558    1.0000 </r>
       <r>    8.4892   -0.0000 </r>
       <r>    9.2223   -0.0000 </r>
       <r>   10.7284    0.0000 </r>
       <r>   10.7364    0.0000 </r>
       <r>   12.2226    0.0000 </r>
       <r>   12.3070    0.0000 </r>
       <r>   13.0046    0.0000 </r>
      </set>
      <set comment="kpoint 98">
       <r>   -1.1697    1.0000 </r>
       <r>    1.2439    1.0000 </r>
       <r>    2.8269    1.0000 </r>
       <r>    5.1556    1.0000 </r>
       <r>    6.0414    1.0000 </r>
[...]
       <r>    1.1226    1.0000 </r>
       <r>    1.9188    1.0000 </r>
       <r>    3.4856    1.0000 </r>
       <r>    3.5310    1.0000 </r>
       <r>    4.3113    1.0000 </r>
       <r>    4.3564    1.0000 </r>
       <r>    5.9009    1.0000 </r>
       <r>    6.6753    1.0000 </r>
       <r>   15.8095    0.0000 </r>
       <r>   16.0704    0.0000 </r>
       <r>   16.5123    0.0000 </r>
       <r>   16.7637    0.0000 </r>
      </set>
      <set comment="kpoint 120">
       <r>    1.7879    1.0000 </r>
       <r>    2.5792    1.0000 </r>
       <r>    2.5952    1.0000 </r>
       <r>    3.3722    1.0000 </r>
       <r>    4.1804    1.0000 </r>
       <r>    4.9503    1.0000 </r>
       <r>    4.9659    1.0000 </r>
       <r>    5.7428    1.0000 </r>
       <r>   16.4104    0.0000 </r>
       <r>   17.0374    0.0000 </r>
       <r>   17.0655    0.0000 </r>
       <r>   17.7245    0.0000 </r>
      </set>
      <set comment="kpoint 121">
       <r>    0.5893    1.0000 </r>
       <r>    1.3887    1.0000 </r>
       <r>    1.3887    1.0000 </r>
       <r>    2.1834    1.0000 </r>
       <r>    8.6720   -0.0000 </r>
       <r>    9.4283    0.0000 </r>
       <r>    9.4283    0.0000 </r>
       <r>   10.1850    0.0000 </r>
       <r>   10.2529    0.0000 </r>
       <r>   11.0136    0.0000 </r>
       <r>   11.0136    0.0000 </r>
       <r>   11.7694    0.0000 </r>
      </set>
      <set comment="kpoint 122">
       <r>    0.6637    1.0000 </r>
       <r>    1.4626    1.0000 </r>
       <r>    1.4626    1.0000 </r>
       <r>    2.2569    1.0000 </r>
       <r>    7.7696    1.0000 </r>
       <r>    8.5334   -0.0000 </r>
       <r>    8.5334   -0.0000 </r>
       <r>    9.2959   -0.0000 </r>
       <r>   11.2828    0.0000 </r>
       <r>   12.0335    0.0000 </r>
       <r>   12.0335    0.0000 </r>
       <r>   12.7813    0.0000 </r>
      </set>
      <set comment="kpoint 123">
       <r>    0.8867    1.0000 </r>
       <r>    1.6843    1.0000 </r>
       <r>    1.6843    1.0000 </r>
       <r>    2.4771    1.0000 </r>
       <r>    6.4871    1.0000 </r>
       <r>    7.2575    1.0000 </r>
       <r>    7.2575    1.0000 </r>
       <r>    8.0260    0.7363 </r>
       <r>   12.9449    0.0000 </r>
       <r>   13.6798    0.0000 </r>
       <r>   13.6798    0.0000 </r>
       <r>   14.4134    0.0000 </r>
      </set>
      <set comment="kpoint 124">
       <r>    1.2574    1.0000 </r>
       <r>    2.0528    1.0000 </r>
       <r>    2.0528    1.0000 </r>
       <r>    2.8425    1.0000 </r>
       <r>    5.2843    1.0000 </r>
       <r>    6.0591    1.0000 </r>
       <r>    6.0591    1.0000 </r>
       <r>    6.8324    1.0000 </r>
       <r>   14.7694    0.0000 </r>
       <r>   15.4739    0.0000 </r>
       <r>   15.4739    0.0000 </r>
       <r>   16.1823    0.0000 </r>
      </set>
      <set comment="kpoint 125">
       <r>    1.7747    1.0000 </r>
       <r>    2.5662    1.0000 </r>
       <r>    2.5662    1.0000 </r>
       <r>    3.3446    1.0000 </r>
       <r>    4.2135    1.0000 </r>
       <r>    4.9844    1.0000 </r>
       <r>    4.9844    1.0000 </r>
       <r>    5.7612    1.0000 </r>
       <r>   16.6814    0.0000 </r>
       <r>   17.2932    0.0000 </r>
       <r>   17.2932    0.0000 </r>
       <r>   17.7835    0.0000 </r>
      </set>
      <set comment="kpoint 126">
       <r>    2.4360    1.0000 </r>
       <r>    3.2153    1.0000 </r>
       <r>    3.2153    1.0000 </r>
       <r>    3.2306    1.0000 </r>
       <r>    4.0379    1.0000 </r>
       <r>    4.0531    1.0000 </r>
       <r>    4.0531    1.0000 </r>
       <r>    4.8251    1.0000 </r>
       <r>   18.2980    0.0000 </r>
       <r>   18.3014    0.0000 </r>
       <r>   18.4658    0.0000 </r>
       <r>   18.5931    0.0000 </r>
      </set>
     </set>
    </set>
   </array>
  </eigenvalues>
  <separator name="orbital magnetization" >
   <v name="MAGDIPOLOUT">      0.00000000      0.00000000      0.00000000</v>
  </separator>
  <dos>
   <i name="efermi">      8.04060316 </i>
   <total>
    <array>
     <dimension dim="1">gridpoints</dimension>
     <dimension dim="2">spin</dimension>
     <field>energy</field>
     <field>total</field>
     <field>integrated</field>
     <set>
      <set comment="spin 1">
       <r>    -4.1886     0.0000     0.0000 </r>
       <r>    -4.1090     0.0000     0.0000 </r>
       <r>    -4.0295     0.0000     0.0000 </r>
       <r>    -3.9499     0.0000     0.0000 </r>
       <r>    -3.8704     0.0000     0.0000 </r>
       <r>    -3.7908     0.0000     0.0000 </r>
       <r>    -3.7113     0.0000     0.0000 </r>
       <r>    -3.6317     0.0000     0.0000 </r>
       <r>    -3.5521    -0.0000    -0.0000 </r>
       <r>    -3.4726    -0.0000    -0.0000 </r>
       <r>    -3.3930    -0.0000    -0.0000 </r>
       <r>    -3.3135    -0.0000    -0.0000 </r>
       <r>    -3.2339    -0.0000    -0.0000 </r>
       <r>    -3.1544    -0.0006    -0.0000 </r>
       <r>    -3.0748     0.0157     0.0012 </r>
       <r>    -2.9953     0.1108     0.0100 </r>
       <r>    -2.9157     0.2308     0.0284 </r>
       <r>    -2.8361     0.1576     0.0409 </r>
       <r>    -2.7566     0.1488     0.0527 </r>
       <r>    -2.6770     0.4862     0.0914 </r>
       <r>    -2.5975     0.3931     0.1227 </r>
       <r>    -2.5179     0.0364     0.1256 </r>
       <r>    -2.4384     0.3578     0.1541 </r>
       <r>    -2.3588     0.5735     0.1997 </r>
       <r>    -2.2793     0.4881     0.2385 </r>
       <r>    -2.1997     0.3122     0.2634 </r>
       <r>    -2.1202     0.3263     0.2893 </r>
       <r>    -2.0406     0.8374     0.3559 </r>
       <r>    -1.9610     0.2754     0.3778 </r>
       <r>    -1.8815     0.0610     0.3827 </r>
       <r>    -1.8019     0.8314     0.4488 </r>
       <r>    -1.7224     0.7469     0.5083 </r>
       <r>    -1.6428     0.5064     0.5485 </r>
       <r>    -1.5633     0.5082     0.5890 </r>
       <r>    -1.4837     0.8998     0.6606 </r>
       <r>    -1.4042     0.4130     0.6934 </r>
       <r>    -1.3246     0.0891     0.7005 </r>
       <r>    -1.2450     0.5223     0.7421 </r>
       <r>    -1.1655     0.9372     0.8166 </r>
       <r>    -1.0859     1.1469     0.9079 </r>
       <r>    -1.0064     0.2535     0.9280 </r>
       <r>    -0.9268     0.8680     0.9971 </r>
       <r>    -0.8473     1.1770     1.0907 </r>
       <r>    -0.7677     0.2556     1.1110 </r>
       <r>    -0.6882     0.1790     1.1253 </r>
       <r>    -0.6086     0.8592     1.1936 </r>
       <r>    -0.5290     0.9970     1.2730 </r>
       <r>    -0.4495     0.9180     1.3460 </r>
       <r>    -0.3699     0.6366     1.3966 </r>
       <r>    -0.2904     0.6653     1.4496 </r>
       <r>    -0.2108     1.0596     1.5339 </r>
       <r>    -0.1313     0.1552     1.5462 </r>
       <r>    -0.0517     1.1205     1.6353 </r>
       <r>     0.0278     1.4926     1.7541 </r>
       <r>     0.1074     0.7032     1.8100 </r>
       <r>     0.1869     0.4546     1.8462 </r>
       <r>     0.2665     1.2195     1.9432 </r>
       <r>     0.3461     1.0409     2.0260 </r>
       <r>     0.4256     0.1674     2.0394 </r>
       <r>     0.5052     0.2573     2.0598 </r>
       <r>     0.5847     1.0769     2.1455 </r>
       <r>     0.6643     1.6172     2.2742 </r>
       <r>     0.7438     0.7880     2.3368 </r>
       <r>     0.8234     0.8934     2.4079 </r>
       <r>     0.9029     1.7232     2.5450 </r>
       <r>     0.9825     0.9155     2.6178 </r>
       <r>     1.0621     0.5639     2.6627 </r>
       <r>     1.1416     1.0275     2.7444 </r>
       <r>     1.2212     0.6292     2.7945 </r>
       <r>     1.3007     1.1593     2.8867 </r>
       <r>     1.3803     0.3651     2.9158 </r>
       <r>     1.4598     1.5045     3.0355 </r>
       <r>     1.5394     1.4430     3.1503 </r>
       <r>     1.6189     0.1545     3.1626 </r>
       <r>     1.6985     0.7887     3.2253 </r>
       <r>     1.7781     1.9671     3.3818 </r>
       <r>     1.8576     1.1903     3.4765 </r>
       <r>     1.9372     0.8639     3.5452 </r>
       <r>     2.0167     1.5024     3.6647 </r>
       <r>     2.0963     1.2953     3.7678 </r>
       <r>     2.1758     0.3081     3.7923 </r>
       <r>     2.2554     0.5893     3.8392 </r>
       <r>     2.3349     1.3890     3.9497 </r>
       <r>     2.4145     1.8139     4.0940 </r>
       <r>     2.4940     1.0869     4.1804 </r>
       <r>     2.5736     1.2361     4.2788 </r>
       <r>     2.6532     1.3825     4.3888 </r>
       <r>     2.7327     0.4916     4.4279 </r>
       <r>     2.8123     0.3904     4.4589 </r>
       <r>     2.8918     1.7017     4.5943 </r>
       <r>     2.9714     1.2239     4.6917 </r>
       <r>     3.0509     1.3319     4.7976 </r>
       <r>     3.1305     1.0903     4.8844 </r>
       <r>     3.2100     1.5810     5.0102 </r>
       <r>     3.2896     1.2286     5.1079 </r>
       <r>     3.3692     0.4649     5.1449 </r>
       <r>     3.4487     1.8933     5.2955 </r>
       <r>     3.5283     2.8103     5.5191 </r>
       <r>     3.6078     1.0528     5.6028 </r>
       <r>     3.6874     0.4142     5.6358 </r>
       <r>     3.7669     1.2626     5.7362 </r>
       <r>     3.8465     1.1108     5.8246 </r>
       <r>     3.9260     0.4591     5.8611 </r>
       <r>     4.0056     0.5371     5.9038 </r>
       <r>     4.0852     1.8632     6.0521 </r>
       <r>     4.1647     1.4575     6.1680 </r>
       <r>     4.2443     1.7151     6.3045 </r>
       <r>     4.3238     1.8580     6.4523 </r>
       <r>     4.4034     1.7754     6.5935 </r>
       <r>     4.4829     0.9586     6.6698 </r>
       <r>     4.5625     0.9662     6.7467 </r>
       <r>     4.6420     1.8518     6.8940 </r>
       <r>     4.7216     1.5678     7.0187 </r>
       <r>     4.8011     1.0819     7.1048 </r>
       <r>     4.8807     1.5238     7.2260 </r>
       <r>     4.9603     1.6373     7.3563 </r>
       <r>     5.0398     1.2547     7.4561 </r>
       <r>     5.1194     0.4762     7.4940 </r>
       <r>     5.1989     1.3849     7.6041 </r>
       <r>     5.2785     2.0730     7.7691 </r>
       <r>     5.3580     1.6771     7.9025 </r>
       <r>     5.4376     2.3949     8.0930 </r>
       <r>     5.5171     2.0775     8.2583 </r>
       <r>     5.5967     0.8850     8.3287 </r>
       <r>     5.6763     0.4686     8.3660 </r>
       <r>     5.7558     1.2245     8.4634 </r>
       <r>     5.8354     1.9651     8.6197 </r>
       <r>     5.9149     1.5083     8.7397 </r>
       <r>     5.9945     1.5202     8.8606 </r>
       <r>     6.0740     1.9230     9.0136 </r>
       <r>     6.1536     0.7450     9.0729 </r>
       <r>     6.2331     0.9254     9.1465 </r>
       <r>     6.3127     1.4012     9.2580 </r>
       <r>     6.3922     1.7633     9.3983 </r>
       <r>     6.4718     1.3524     9.5059 </r>
       <r>     6.5514     1.8366     9.6520 </r>
       <r>     6.6309     1.5595     9.7760 </r>
       <r>     6.7105     1.6972     9.9111 </r>
       <r>     6.7900     1.2227    10.0083 </r>
       <r>     6.8696     1.3498    10.1157 </r>
       <r>     6.9491     1.6828    10.2496 </r>
       <r>     7.0287     2.0934    10.4161 </r>
       <r>     7.1082     1.3856    10.5264 </r>
       <r>     7.1878     1.4391    10.6408 </r>
       <r>     7.2674     0.7397    10.6997 </r>
       <r>     7.3469     1.0532    10.7835 </r>
       <r>     7.4265     1.3262    10.8890 </r>
       <r>     7.5060     1.6961    11.0239 </r>
       <r>     7.5856     0.9727    11.1013 </r>
       <r>     7.6651     1.5514    11.2247 </r>
       <r>     7.7447     2.5797    11.4299 </r>
       <r>     7.8242     1.7597    11.5699 </r>
       <r>     7.9038     1.9118    11.7220 </r>
       <r>     7.9834     2.0855    11.8879 </r>
       <r>     8.0629     1.9326    12.0417 </r>
       <r>     8.1425     1.6378    12.1720 </r>
       <r>     8.2220     1.7419    12.3106 </r>
       <r>     8.3016     0.8300    12.3766 </r>
       <r>     8.3811     1.1386    12.4672 </r>
       <r>     8.4607     0.5432    12.5104 </r>
       <r>     8.5402     1.6881    12.6447 </r>
       <r>     8.6198     1.9126    12.7968 </r>
       <r>     8.6993     1.1893    12.8914 </r>
       <r>     8.7789     2.6609    13.1031 </r>
       <r>     8.8585     2.7838    13.3246 </r>
       <r>     8.9380     2.2776    13.5058 </r>
       <r>     9.0176     1.5604    13.6299 </r>
       <r>     9.0971     0.3165    13.6551 </r>
       <r>     9.1767     1.0427    13.7381 </r>
       <r>     9.2562     1.6699    13.8709 </r>
       <r>     9.3358     2.3971    14.0616 </r>
       <r>     9.4153     1.8431    14.2083 </r>
       <r>     9.4949     1.3758    14.3177 </r>
       <r>     9.5745     1.4509    14.4331 </r>
       <r>     9.6540     1.4502    14.5485 </r>
       <r>     9.7336     1.8298    14.6941 </r>
       <r>     9.8131     2.0836    14.8598 </r>
       <r>     9.8927     2.0440    15.0225 </r>
       <r>     9.9722     2.1683    15.1950 </r>
       <r>    10.0518     1.6286    15.3245 </r>
       <r>    10.1313     1.0622    15.4090 </r>
       <r>    10.2109     2.7445    15.6274 </r>
       <r>    10.2905     2.0366    15.7894 </r>
       <r>    10.3700     1.8147    15.9337 </r>
       <r>    10.4496     2.4596    16.1294 </r>
       <r>    10.5291     1.7780    16.2709 </r>
       <r>    10.6087     0.7845    16.3333 </r>
       <r>    10.6882     1.1991    16.4287 </r>
       <r>    10.7678     1.4044    16.5404 </r>
       <r>    10.8473     1.3214    16.6455 </r>
       <r>    10.9269     1.6661    16.7781 </r>
       <r>    11.0064     1.2963    16.8812 </r>
       <r>    11.0860     2.0161    17.0416 </r>
       <r>    11.1656     2.7541    17.2607 </r>
       <r>    11.2451     3.1358    17.5102 </r>
       <r>    11.3247     2.0703    17.6749 </r>
       <r>    11.4042     1.7921    17.8174 </r>
       <r>    11.4838     2.7828    18.0388 </r>
       <r>    11.5633     1.1821    18.1329 </r>
       <r>    11.6429     1.9375    18.2870 </r>
       <r>    11.7224     1.1315    18.3770 </r>
       <r>    11.8020     1.3648    18.4856 </r>
       <r>    11.8816     1.9474    18.6405 </r>
       <r>    11.9611     1.4655    18.7571 </r>
       <r>    12.0407     1.9917    18.9156 </r>
       <r>    12.1202     3.2337    19.1728 </r>
       <r>    12.1998     2.3183    19.3573 </r>
       <r>    12.2793     1.7299    19.4949 </r>
       <r>    12.3589     2.9890    19.7327 </r>
       <r>    12.4384     2.2183    19.9091 </r>
       <r>    12.5180     1.6228    20.0382 </r>
       <r>    12.5975     0.7687    20.0994 </r>
       <r>    12.6771     1.2819    20.2014 </r>
       <r>    12.7567     2.1963    20.3761 </r>
       <r>    12.8362     1.9244    20.5292 </r>
       <r>    12.9158     2.1180    20.6977 </r>
       <r>    12.9953     2.1261    20.8668 </r>
       <r>    13.0749     2.1192    21.0354 </r>
       <r>    13.1544     1.5218    21.1565 </r>
       <r>    13.2340     2.5453    21.3590 </r>
       <r>    13.3135     2.1249    21.5280 </r>
       <r>    13.3931     1.8288    21.6735 </r>
       <r>    13.4727     1.6782    21.8070 </r>
       <r>    13.5522     1.6303    21.9367 </r>
       <r>    13.6318     1.2019    22.0324 </r>
       <r>    13.7113     2.2499    22.2114 </r>
       <r>    13.7909     0.8083    22.2757 </r>
       <r>    13.8704     1.1909    22.3704 </r>
       <r>    13.9500     1.6372    22.5007 </r>
       <r>    14.0295     0.4784    22.5387 </r>
       <r>    14.1091     0.0610    22.5436 </r>
       <r>    14.1887     0.9475    22.6189 </r>
       <r>    14.2682     0.9400    22.6937 </r>
       <r>    14.3478     1.5806    22.8195 </r>
       <r>    14.4273     0.5165    22.8606 </r>
       <r>    14.5069     0.5654    22.9055 </r>
       <r>    14.5864     1.3759    23.0150 </r>
       <r>    14.6660     0.8403    23.0818 </r>
       <r>    14.7455     0.1971    23.0975 </r>
       <r>    14.8251     0.7147    23.1544 </r>
       <r>    14.9046     0.1233    23.1642 </r>
       <r>    14.9842     0.2231    23.1819 </r>
       <r>    15.0638     0.9382    23.2566 </r>
       <r>    15.1433     0.5344    23.2991 </r>
       <r>    15.2229     0.2952    23.3226 </r>
       <r>    15.3024     0.8441    23.3897 </r>
       <r>    15.3820     0.0905    23.3969 </r>
       <r>    15.4615     0.5923    23.4441 </r>
       <r>    15.5411     0.7518    23.5039 </r>
       <r>    15.6206     0.0355    23.5067 </r>
       <r>    15.7002     0.1982    23.5225 </r>
       <r>    15.7798     0.3059    23.5468 </r>
       <r>    15.8593     0.5648    23.5917 </r>
       <r>    15.9389     0.0293    23.5941 </r>
       <r>    16.0184     0.7491    23.6536 </r>
       <r>    16.0980     0.7128    23.7104 </r>
       <r>    16.1775     0.0792    23.7167 </r>
       <r>    16.2571     0.0904    23.7238 </r>
       <r>    16.3366    -0.0129    23.7228 </r>
       <r>    16.4162     0.1859    23.7376 </r>
       <r>    16.4958     0.1954    23.7532 </r>
       <r>    16.5753     0.5232    23.7948 </r>
       <r>    16.6549     0.0224    23.7966 </r>
       <r>    16.7344     0.2901    23.8196 </r>
       <r>    16.8140     0.3119    23.8445 </r>
       <r>    16.8935    -0.0090    23.8437 </r>
       <r>    16.9731    -0.0145    23.8426 </r>
       <r>    17.0526     0.3271    23.8686 </r>
       <r>    17.1322     0.3052    23.8929 </r>
       <r>    17.2117    -0.0201    23.8913 </r>
       <r>    17.2913     0.1482    23.9031 </r>
       <r>    17.3709     0.1682    23.9165 </r>
       <r>    17.4504    -0.0076    23.9159 </r>
       <r>    17.5300    -0.0000    23.9159 </r>
       <r>    17.6095    -0.0008    23.9158 </r>
       <r>    17.6891     0.0103    23.9166 </r>
       <r>    17.7686     0.3345    23.9432 </r>
       <r>    17.8482     0.1150    23.9524 </r>
       <r>    17.9277    -0.0056    23.9519 </r>
       <r>    18.0073    -0.0000    23.9519 </r>
       <r>    18.0869    -0.0000    23.9519 </r>
       <r>    18.1664    -0.0002    23.9519 </r>
       <r>    18.2460    -0.0092    23.9512 </r>
       <r>    18.3255     0.2748    23.9730 </r>
       <r>    18.4051     0.0331    23.9757 </r>
       <r>    18.4846     0.1230    23.9855 </r>
       <r>    18.5642     0.0467    23.9892 </r>
       <r>    18.6437     0.1402    24.0003 </r>
       <r>    18.7233    -0.0039    24.0000 </r>
       <r>    18.8029    -0.0001    24.0000 </r>
       <r>    18.8824    -0.0000    24.0000 </r>
       <r>    18.9620    -0.0000    24.0000 </r>
       <r>    19.0415     0.0000    24.0000 </r>
       <r>    19.1211     0.0000    24.0000 </r>
       <r>    19.2006     0.0000    24.0000 </r>
       <r>    19.2802     0.0000    24.0000 </r>
       <r>    19.3597     0.0000    24.0000 </r>
       <r>    19.4393     0.0000    24.0000 </r>
       <r>    19.5188     0.0000    24.0000 </r>
       <r>    19.5984     0.0000    24.0000 </r>
       <r>    19.6780     0.0000    24.0000 </r>
      </set>
     </set>
    </array>
   </total>
  </dos>
 </calculation>
 <structure name="finalpos" >
  <crystal>
   <varray name="basis" >
    <v>       4.00272600       0.00000000       0.00000000 </v>
    <v>       0.00000000       4.04336400       0.00000000 </v>
    <v>       0.00000000       0.00000000       4.04336400 </v>
   </varray>
   <i name="volume">     65.43973655 </i>
   <varray name="rec_basis" >
    <v>       0.24982974       0.00000000       0.00000000 </v>
    <v>       0.00000000       0.24731882       0.00000000 </v>
    <v>       0.00000000       0.00000000       0.24731882 </v>
   </varray>
  </crystal>
  <varray name="positions" >
   <v>       0.00000000       0.00000000       0.00000000 </v>
   <v>       0.00000000       0.50000000       0.50000000 </v>
   <v>       0.50000000       0.00000000       0.50000000 </v>
   <v>       0.50000000       0.50000000       0.00000000 </v>
  </varray>
 </structure>
</modeling>
