<?xml version="1.0" encoding="ISO-8859-1"?>
<modeling>
 <generator>
  <i name="program" type="string">vasp </i>
  <i name="version" type="string">5.4.4.18Apr17-6-g9f103f2a35  </i>
  <i name="subversion" type="string">(build Jun 11 2017 21:30:58) complex            parallel </i>
  <i name="platform" type="string">LinuxIFC </i>
  <i name="date" type="string">2022 07 07 </i>
  <i name="time" type="string">18:38:29 </i>
 </generator>
 <incar>
  <i type="string" name="PREC">accurate</i>
  <i type="string" name="ALGO"> Normal</i>
  <i type="logical" name="ADDGRID"> T  </i>
  <i type="int" name="NELM">   100</i>
  <i type="int" name="NELMIN">     4</i>
  <i type="int" name="IBRION">    -1</i>
  <i name="EDIFF">      0.00005000</i>
  <i name="ENCUT">    520.00000000</i>
  <i type="logical" name="LREAL"> F  </i>
  <i type="int" name="ISMEAR">     1</i>
  <i name="SIGMA">      0.05000000</i>
  <i type="logical" name="LWAVE"> F  </i>
  <i type="logical" name="LCHARG"> F  </i>
  <i type="logical" name="LASPH"> T  </i>
  <v type="int" name="KPOINT_BSE">    -1     0     0     0</v>
  <i type="int" name="NELM">   100</i>
  <i type="logical" name="LASPH"> T  </i>
 </incar>
 <structure name="primitive_cell" >
  <crystal>
   <varray name="basis" >
    <v>      -2.04179900       0.00000000       2.02168200 </v>
    <v>      -2.04179900       0.00000000      -2.02168200 </v>
    <v>       2.04179900      -2.02168200       0.00000000 </v>
   </varray>
   <i name="volume">     16.69047402 </i>
   <varray name="rec_basis" >
    <v>      -0.24488209      -0.24731882       0.24731882 </v>
    <v>      -0.24488209      -0.24731882      -0.24731882 </v>
    <v>       0.00000000      -0.49463763       0.00000000 </v>
   </varray>
  </crystal>
  <varray name="positions" >
   <v>       0.00000000       0.00000000       0.00000000 </v>
  </varray>
 </structure>
 <varray name="primitive_index" >
  <v type="int" >        1 </v>
 </varray>
 <kpoints>
  <generation param="Gamma">
   <v type="int" name="divisions">      11       11       11 </v>
   <v name="usershift">      0.00000000       0.00000000       0.00000000 </v>
   <v name="genvec1">      0.09090909       0.00000000       0.00000000 </v>
   <v name="genvec2">      0.00000000       0.09090909       0.00000000 </v>
   <v name="genvec3">      0.00000000       0.00000000       0.09090909 </v>
   <v name="shift">      0.00000000       0.00000000       0.00000000 </v>
  </generation>
  <varray name="kpointlist" >
   <v>       0.00000000       0.00000000       0.00000000 </v>
   <v>       0.09090909       0.00000000       0.00000000 </v>
   <v>       0.18181818       0.00000000       0.00000000 </v>
   <v>       0.27272727       0.00000000       0.00000000 </v>
   <v>       0.36363636       0.00000000       0.00000000 </v>
   <v>       0.45454545       0.00000000       0.00000000 </v>
   <v>       0.00000000       0.09090909       0.00000000 </v>
   <v>       0.09090909       0.09090909       0.00000000 </v>
   <v>       0.18181818       0.09090909       0.00000000 </v>
   <v>       0.27272727       0.09090909       0.00000000 </v>
   <v>       0.36363636       0.09090909       0.00000000 </v>
   <v>       0.45454545       0.09090909       0.00000000 </v>
   <v>       0.00000000       0.18181818       0.00000000 </v>
   <v>       0.09090909       0.18181818       0.00000000 </v>
   <v>       0.18181818       0.18181818       0.00000000 </v>
   <v>       0.27272727       0.18181818       0.00000000 </v>
   <v>       0.36363636       0.18181818       0.00000000 </v>
   <v>       0.45454545       0.18181818       0.00000000 </v>
   <v>       0.00000000       0.27272727       0.00000000 </v>
   <v>       0.09090909       0.27272727       0.00000000 </v>
   <v>       0.18181818       0.27272727       0.00000000 </v>
   <v>       0.27272727       0.27272727       0.00000000 </v>
   <v>       0.36363636       0.27272727       0.00000000 </v>
   <v>       0.45454545       0.27272727       0.00000000 </v>
   <v>       0.00000000       0.36363636       0.00000000 </v>
   <v>       0.09090909       0.36363636       0.00000000 </v>
   <v>       0.18181818       0.36363636       0.00000000 </v>
   <v>       0.27272727       0.36363636       0.00000000 </v>
   <v>       0.36363636       0.36363636       0.00000000 </v>
   <v>       0.45454545       0.36363636       0.00000000 </v>
   <v>       0.00000000       0.45454545       0.00000000 </v>
   <v>       0.09090909       0.45454545       0.00000000 </v>
   <v>       0.18181818       0.45454545       0.00000000 </v>
   <v>       0.27272727       0.45454545       0.00000000 </v>
   <v>       0.36363636       0.45454545       0.00000000 </v>
   <v>       0.45454545       0.45454545       0.00000000 </v>
   <v>       0.00000000       0.09090909       0.09090909 </v>
   <v>       0.09090909       0.09090909       0.09090909 </v>
   <v>       0.18181818       0.09090909       0.09090909 </v>
   <v>       0.27272727       0.09090909       0.09090909 </v>
   <v>       0.36363636       0.09090909       0.09090909 </v>
   <v>       0.45454545       0.09090909       0.09090909 </v>
   <v>       0.00000000       0.18181818       0.09090909 </v>
   <v>       0.09090909       0.18181818       0.09090909 </v>
   <v>       0.18181818       0.18181818       0.09090909 </v>
   <v>       0.27272727       0.18181818       0.09090909 </v>
   <v>       0.36363636       0.18181818       0.09090909 </v>
   <v>       0.45454545       0.18181818       0.09090909 </v>
   <v>       0.00000000       0.27272727       0.09090909 </v>
   <v>       0.09090909       0.27272727       0.09090909 </v>
   <v>       0.18181818       0.27272727       0.09090909 </v>
   <v>       0.27272727       0.27272727       0.09090909 </v>
   <v>       0.36363636       0.27272727       0.09090909 </v>
   <v>       0.45454545       0.27272727       0.09090909 </v>
   <v>       0.00000000       0.36363636       0.09090909 </v>
   <v>       0.09090909       0.36363636       0.09090909 </v>
   <v>       0.18181818       0.36363636       0.09090909 </v>
   <v>       0.27272727       0.36363636       0.09090909 </v>
   <v>       0.36363636       0.36363636       0.09090909 </v>
   <v>       0.45454545       0.36363636       0.09090909 </v>
   <v>       0.00000000       0.45454545       0.09090909 </v>
   <v>       0.09090909       0.45454545       0.09090909 </v>
   <v>       0.18181818       0.45454545       0.09090909 </v>
   <v>       0.27272727       0.45454545       0.09090909 </v>
   <v>       0.36363636       0.45454545       0.09090909 </v>
   <v>       0.45454545       0.45454545       0.09090909 </v>
   <v>       0.00000000       0.18181818       0.18181818 </v>
   <v>       0.09090909       0.18181818       0.18181818 </v>
   <v>       0.18181818       0.18181818       0.18181818 </v>
   <v>       0.27272727       0.18181818       0.18181818 </v>
   <v>       0.36363636       0.18181818       0.18181818 </v>
   <v>       0.45454545       0.18181818       0.18181818 </v>
   <v>       0.00000000       0.27272727       0.18181818 </v>
   <v>       0.09090909       0.27272727       0.18181818 </v>
   <v>       0.18181818       0.27272727       0.18181818 </v>
   <v>       0.27272727       0.27272727       0.18181818 </v>
   <v>       0.36363636       0.27272727       0.18181818 </v>
   <v>       0.45454545       0.27272727       0.18181818 </v>
   <v>       0.00000000       0.36363636       0.18181818 </v>
   <v>       0.09090909       0.36363636       0.18181818 </v>
   <v>       0.18181818       0.36363636       0.18181818 </v>
   <v>       0.27272727       0.36363636       0.18181818 </v>
   <v>       0.36363636       0.36363636       0.18181818 </v>
   <v>       0.45454545       0.36363636       0.18181818 </v>
   <v>       0.00000000       0.45454545       0.18181818 </v>
   <v>       0.09090909       0.45454545       0.18181818 </v>
   <v>       0.18181818       0.45454545       0.18181818 </v>
   <v>       0.27272727       0.45454545       0.18181818 </v>
   <v>       0.36363636       0.45454545       0.18181818 </v>
   <v>       0.45454545       0.45454545       0.18181818 </v>
   <v>       0.00000000       0.27272727       0.27272727 </v>
   <v>       0.09090909       0.27272727       0.27272727 </v>
   <v>       0.18181818       0.27272727       0.27272727 </v>
   <v>       0.27272727       0.27272727       0.27272727 </v>
   <v>       0.36363636       0.27272727       0.27272727 </v>
   <v>       0.45454545       0.27272727       0.27272727 </v>
   <v>       0.00000000       0.36363636       0.27272727 </v>
   <v>       0.09090909       0.36363636       0.27272727 </v>
   <v>       0.18181818       0.36363636       0.27272727 </v>
   <v>       0.27272727       0.36363636       0.27272727 </v>
   <v>       0.36363636       0.36363636       0.27272727 </v>
   <v>       0.45454545       0.36363636       0.27272727 </v>
   <v>       0.00000000       0.45454545       0.27272727 </v>
   <v>       0.09090909       0.45454545       0.27272727 </v>
   <v>       0.18181818       0.45454545       0.27272727 </v>
   <v>       0.27272727       0.45454545       0.27272727 </v>
   <v>       0.36363636       0.45454545       0.27272727 </v>
   <v>       0.45454545       0.45454545       0.27272727 </v>
   <v>       0.00000000       0.36363636       0.36363636 </v>
   <v>       0.09090909       0.36363636       0.36363636 </v>
   <v>       0.18181818       0.36363636       0.36363636 </v>
   <v>       0.27272727       0.36363636       0.36363636 </v>
   <v>       0.36363636       0.36363636       0.36363636 </v>
   <v>       0.45454545       0.36363636       0.36363636 </v>
   <v>       0.00000000       0.45454545       0.36363636 </v>
   <v>       0.09090909       0.45454545       0.36363636 </v>
   <v>       0.18181818       0.45454545       0.36363636 </v>
   <v>       0.27272727       0.45454545       0.36363636 </v>
   <v>       0.36363636       0.45454545       0.36363636 </v>
   <v>       0.45454545       0.45454545       0.36363636 </v>
   <v>       0.00000000       0.45454545       0.45454545 </v>
   <v>       0.09090909       0.45454545       0.45454545 </v>
   <v>       0.18181818       0.45454545       0.45454545 </v>
   <v>       0.27272727       0.45454545       0.45454545 </v>
   <v>       0.36363636       0.45454545       0.45454545 </v>
   <v>       0.45454545       0.45454545       0.45454545 </v>
  </varray>
  <varray name="weights" >
   <v>       0.00075131 </v>
   <v>       0.00150263 </v>
   <v>       0.00150263 </v>
   <v>       0.00150263 </v>
   <v>       0.00150263 </v>
   <v>       0.00150263 </v>
   <v>       0.00300526 </v>
   <v>       0.00601052 </v>
   <v>       0.00601052 </v>
   <v>       0.00601052 </v>
   <v>       0.00601052 </v>
   <v>       0.00601052 </v>
   <v>       0.00300526 </v>
   <v>       0.00601052 </v>
   <v>       0.00601052 </v>
   <v>       0.00601052 </v>
   <v>       0.00601052 </v>
   <v>       0.00601052 </v>
   <v>       0.00300526 </v>
   <v>       0.00601052 </v>
   <v>       0.00601052 </v>
   <v>       0.00601052 </v>
   <v>       0.00601052 </v>
   <v>       0.00601052 </v>
   <v>       0.00300526 </v>
   <v>       0.00601052 </v>
   <v>       0.00601052 </v>
   <v>       0.00601052 </v>
   <v>       0.00601052 </v>
   <v>       0.00601052 </v>
   <v>       0.00300526 </v>
   <v>       0.00601052 </v>
   <v>       0.00601052 </v>
   <v>       0.00601052 </v>
   <v>       0.00601052 </v>
   <v>       0.00601052 </v>
   <v>       0.00300526 </v>
   <v>       0.00601052 </v>
   <v>       0.00601052 </v>
   <v>       0.00601052 </v>
   <v>       0.00601052 </v>
   <v>       0.00601052 </v>
   <v>       0.00601052 </v>
   <v>       0.01202104 </v>
   <v>       0.01202104 </v>
   <v>       0.01202104 </v>
   <v>       0.01202104 </v>
   <v>       0.01202104 </v>
   <v>       0.00601052 </v>
   <v>       0.01202104 </v>
   <v>       0.01202104 </v>
   <v>       0.01202104 </v>
   <v>       0.01202104 </v>
   <v>       0.01202104 </v>
   <v>       0.00601052 </v>
   <v>       0.01202104 </v>
   <v>       0.01202104 </v>
   <v>       0.01202104 </v>
   <v>       0.01202104 </v>
   <v>       0.01202104 </v>
   <v>       0.00601052 </v>
   <v>       0.01202104 </v>
   <v>       0.01202104 </v>
   <v>       0.01202104 </v>
   <v>       0.01202104 </v>
   <v>       0.01202104 </v>
   <v>       0.00300526 </v>
   <v>       0.00601052 </v>
   <v>       0.00601052 </v>
   <v>       0.00601052 </v>
   <v>       0.00601052 </v>
   <v>       0.00601052 </v>
   <v>       0.00601052 </v>
   <v>       0.01202104 </v>
   <v>       0.01202104 </v>
   <v>       0.01202104 </v>
   <v>       0.01202104 </v>
   <v>       0.01202104 </v>
   <v>       0.00601052 </v>
   <v>       0.01202104 </v>
   <v>       0.01202104 </v>
   <v>       0.01202104 </v>
   <v>       0.01202104 </v>
   <v>       0.01202104 </v>
   <v>       0.00601052 </v>
   <v>       0.01202104 </v>
   <v>       0.01202104 </v>
   <v>       0.01202104 </v>
   <v>       0.01202104 </v>
   <v>       0.01202104 </v>
   <v>       0.00300526 </v>
   <v>       0.00601052 </v>
   <v>       0.00601052 </v>
   <v>       0.00601052 </v>
   <v>       0.00601052 </v>
   <v>       0.00601052 </v>
   <v>       0.00601052 </v>
   <v>       0.01202104 </v>
   <v>       0.01202104 </v>
   <v>       0.01202104 </v>
   <v>       0.01202104 </v>
   <v>       0.01202104 </v>
   <v>       0.00601052 </v>
   <v>       0.01202104 </v>
   <v>       0.01202104 </v>
   <v>       0.01202104 </v>
   <v>       0.01202104 </v>
   <v>       0.01202104 </v>
   <v>       0.00300526 </v>
   <v>       0.00601052 </v>
   <v>       0.00601052 </v>
   <v>       0.00601052 </v>
   <v>       0.00601052 </v>
   <v>       0.00601052 </v>
   <v>       0.00601052 </v>
   <v>       0.01202104 </v>
   <v>       0.01202104 </v>
   <v>       0.01202104 </v>
   <v>       0.01202104 </v>
   <v>       0.01202104 </v>
   <v>       0.00300526 </v>
   <v>       0.00601052 </v>
   <v>       0.00601052 </v>
   <v>       0.00601052 </v>
   <v>       0.00601052 </v>
   <v>       0.00601052 </v>
  </varray>
 </kpoints>
 <parameters>
  <separator name="general" >
   <i type="string" name="SYSTEM">unknown system</i>
   <i type="logical" name="LCOMPAT"> F  </i>
  </separator>
  <separator name="electronic" >
   <i type="string" name="PREC">accura</i>
   <i name="ENMAX">    520.00000000</i>
   <i name="ENAUG">    291.05200000</i>
   <i name="EDIFF">      0.00005000</i>
   <i type="int" name="IALGO">    38</i>
   <i type="int" name="IWAVPR">    10</i>
   <i type="int" name="NBANDS">    12</i>
   <i name="NELECT">     12.00000000</i>
   <i type="int" name="TURBO">     0</i>
   <i type="int" name="IRESTART">     0</i>
   <i type="int" name="NREBOOT">     0</i>
   <i type="int" name="NMIN">     0</i>
   <i name="EREF">      0.00000000</i>
   <separator name="electronic smearing" >
    <i type="int" name="ISMEAR">     1</i>
    <i name="SIGMA">      0.05000000</i>
    <i name="KSPACING">      0.50000000</i>
    <i type="logical" name="KGAMMA"> T  </i>
   </separator>
   <separator name="electronic projectors" >
    <i type="logical" name="LREAL"> F  </i>
    <v name="ROPT">      0.00000000</v>
    <i type="int" name="LMAXPAW">  -100</i>
    <i type="int" name="LMAXMIX">     2</i>
    <i type="logical" name="NLSPLINE"> F  </i>
   </separator>
   <separator name="electronic startup" >
    <i type="int" name="ISTART">     0</i>
    <i type="int" name="ICHARG">     2</i>
    <i type="int" name="INIWAV">     1</i>
   </separator>
   <separator name="electronic spin" >
    <i type="int" name="ISPIN">     1</i>
    <i type="logical" name="LNONCOLLINEAR"> F  </i>
    <v name="MAGMOM">      1.00000000      1.00000000      1.00000000      1.00000000</v>
    <i name="NUPDOWN">     -1.00000000</i>
    <i type="logical" name="LSORBIT"> F  </i>
    <v name="SAXIS">      0.00000000      0.00000000      1.00000000</v>
    <i type="logical" name="LSPIRAL"> F  </i>
    <v name="QSPIRAL">      0.00000000      0.00000000      0.00000000</v>
    <i type="logical" name="LZEROZ"> F  </i>
   </separator>
   <separator name="electronic exchange-correlation" >
    <i type="logical" name="LASPH"> T  </i>
    <i type="logical" name="LMETAGGA"> F  </i>
   </separator>
   <separator name="electronic convergence" >
    <i type="int" name="NELM">   100</i>
    <i type="int" name="NELMDL">    -5</i>
    <i type="int" name="NELMIN">     4</i>
    <i name="ENINI">    520.00000000</i>
    <separator name="electronic convergence detail" >
     <i type="logical" name="LDIAG"> T  </i>
     <i type="logical" name="LSUBROT"> F  </i>
     <i name="WEIMIN">      0.00000000</i>
     <i name="EBREAK">      0.00000104</i>
     <i name="DEPER">      0.30000000</i>
     <i type="int" name="NRMM">     4</i>
     <i name="TIME">      0.40000000</i>
    </separator>
   </separator>
   <separator name="electronic mixer" >
    <i name="AMIX">      0.40000000</i>
    <i name="BMIX">      1.00000000</i>
    <i name="AMIN">      0.10000000</i>
    <i name="AMIX_MAG">      1.60000000</i>
    <i name="BMIX_MAG">      1.00000000</i>
    <separator name="electronic mixer details" >
     <i type="int" name="IMIX">     4</i>
     <i type="logical" name="MIXFIRST"> F  </i>
     <i type="int" name="MAXMIX">   -45</i>
     <i name="WC">    100.00000000</i>
     <i type="int" name="INIMIX">     1</i>
     <i type="int" name="MIXPRE">     1</i>
     <i type="int" name="MREMOVE">     5</i>
    </separator>
   </separator>
   <separator name="electronic dipolcorrection" >
    <i type="logical" name="LDIPOL"> F  </i>
    <i type="logical" name="LMONO"> F  </i>
    <i type="int" name="IDIPOL">     0</i>
    <i name="EPSILON">      1.00000000</i>
    <v name="DIPOL">   -100.00000000   -100.00000000   -100.00000000</v>
    <i name="EFIELD">      0.00000000</i>
   </separator>
  </separator>
  <separator name="grids" >
   <i type="int" name="NGX">    30</i>
   <i type="int" name="NGY">    30</i>
   <i type="int" name="NGZ">    30</i>
   <i type="int" name="NGXF">    60</i>
   <i type="int" name="NGYF">    60</i>
   <i type="int" name="NGZF">    60</i>
   <i type="logical" name="ADDGRID"> T  </i>
  </separator>
  <separator name="ionic" >
   <i type="int" name="NSW">     0</i>
   <i type="int" name="IBRION">    -1</i>
   <i type="int" name="MDALGO">     0</i>
   <i type="int" name="ISIF">     2</i>
   <i name="PSTRESS">      0.00000000</i>
   <i name="EDIFFG">      0.00050000</i>
   <i type="int" name="NFREE">     0</i>
   <i name="POTIM">      0.50000000</i>
   <i name="SMASS">     -3.00000000</i>
   <i name="SCALEE">      1.00000000</i>
  </separator>
  <separator name="ionic md" >
   <i name="TEBEG">      0.00010000</i>
   <i name="TEEND">      0.00010000</i>
   <i type="int" name="NBLOCK">     1</i>
   <i type="int" name="KBLOCK">     1</i>
   <i type="int" name="NPACO">   256</i>
   <i name="APACO">     16.00000000</i>
  </separator>
  <separator name="symmetry" >
   <i type="int" name="ISYM">     2</i>
   <i name="SYMPREC">      0.00001000</i>
  </separator>
  <separator name="dos" >
   <i type="int" name="LORBIT">     0</i>
   <v name="RWIGS">     -1.00000000</v>
   <i type="int" name="NEDOS">   301</i>
   <i name="EMIN">     10.00000000</i>
   <i name="EMAX">    -10.00000000</i>
   <i name="EFERMI">      0.00000000</i>
  </separator>
  <separator name="writing" >
   <i type="int" name="NWRITE">     2</i>
   <i type="logical" name="LWAVE"> F  </i>
   <i type="logical" name="LDOWNSAMPLE"> F  </i>
   <i type="logical" name="LCHARG"> F  </i>
   <i type="logical" name="LPARD"> F  </i>
   <i type="logical" name="LVTOT"> F  </i>
   <i type="logical" name="LVHAR"> F  </i>
   <i type="logical" name="LELF"> F  </i>
   <i type="logical" name="LOPTICS"> F  </i>
   <v name="STM">      0.00000000      0.00000000      0.00000000      0.00000000      0.00000000      0.00000000      0.00000000</v>
  </separator>
  <separator name="performance" >
   <i type="int" name="NPAR">     4</i>
   <i type="int" name="NSIM">     4</i>
   <i type="int" name="NBLK">    -1</i>
   <i type="logical" name="LPLANE"> T  </i>
   <i type="logical" name="LSCALAPACK"> T  </i>
   <i type="logical" name="LSCAAWARE"> F  </i>
   <i type="logical" name="LSCALU"> F  </i>
   <i type="logical" name="LASYNC"> F  </i>
   <i type="logical" name="LORBITALREAL"> F  </i>
  </separator>
  <separator name="miscellaneous" >
   <i type="int" name="IDIOT">     3</i>
   <i type="int" name="ISPECIAL">     0</i>
   <i type="logical" name="LMUSIC"> F  </i>
   <v name="POMASS">     26.98100000</v>
   <v name="DARWINR">      0.00000000</v>
   <v name="DARWINV">      1.00000000</v>
   <i type="logical" name="LCORR"> T  </i>
  </separator>
  <i type="logical" name="GGA_COMPAT"> T  </i>
  <i type="logical" name="LBERRY"> F  </i>
  <i type="int" name="ICORELEVEL">     0</i>
  <i type="logical" name="LDAU"> F  </i>
  <i type="int" name="I_CONSTRAINED_M">     0</i>
  <separator name="electronic exchange-correlation" >
   <i type="string" name="GGA">--</i>
   <i type="int" name="VOSKOWN">     0</i>
   <i type="logical" name="LHFCALC"> F  </i>
   <i type="string" name="PRECFOCK"></i>
   <i type="logical" name="LSYMGRAD"> F  </i>
   <i type="logical" name="LHFONE"> F  </i>
   <i type="logical" name="LRHFCALC"> F  </i>
   <i type="logical" name="LTHOMAS"> F  </i>
   <i type="logical" name="LMODELHF"> F  </i>
   <i name="ENCUT4O">     -1.00000000</i>
   <i type="int" name="EXXOEP">     0</i>
   <i type="int" name="FOURORBIT">     0</i>
   <i name="AEXX">      0.00000000</i>
   <i name="HFALPHA">      0.00000000</i>
   <i name="MCALPHA">      0.00000000</i>
   <i name="ALDAX">      1.00000000</i>
   <i name="AGGAX">      1.00000000</i>
   <i name="ALDAC">      1.00000000</i>
   <i name="AGGAC">      1.00000000</i>
   <i type="int" name="NKREDX">     1</i>
   <i type="int" name="NKREDY">     1</i>
   <i type="int" name="NKREDZ">     1</i>
   <i type="logical" name="SHIFTRED"> F  </i>
   <i type="logical" name="ODDONLY"> F  </i>
   <i type="logical" name="EVENONLY"> F  </i>
   <i type="int" name="LMAXFOCK">     0</i>
   <i type="int" name="NMAXFOCKAE">     0</i>
   <i type="logical" name="LFOCKAEDFT"> F  </i>
   <i name="HFSCREEN">      0.00000000</i>
   <i name="HFSCREENC">      0.00000000</i>
   <i type="int" name="NBANDSGWLOW">     0</i>
  </separator>
  <separator name="vdW DFT" >
   <i type="logical" name="LUSE_VDW"> F  </i>
   <i name="Zab_VDW">     -0.84910000</i>
   <i name="PARAM1">      0.12340000</i>
   <i name="PARAM2">      1.00000000</i>
   <i name="PARAM3">      0.00000000</i>
  </separator>
  <separator name="model GW" >
   <i type="int" name="MODEL_GW">     0</i>
   <i name="MODEL_EPS0">     10.01428441</i>
   <i name="MODEL_ALPHA">      1.00000000</i>
  </separator>
  <separator name="linear response parameters" >
   <i type="logical" name="LEPSILON"> F  </i>
   <i type="logical" name="LRPA"> F  </i>
   <i type="logical" name="LNABLA"> F  </i>
   <i type="logical" name="LVEL"> F  </i>
   <i type="int" name="KINTER">     0</i>
   <i name="CSHIFT">      0.10000000</i>
   <i name="OMEGAMAX">     -1.00000000</i>
   <i name="DEG_THRESHOLD">      0.00200000</i>
   <i name="RTIME">     -0.10000000</i>
   <i name="WPLASMAI">      0.00000000</i>
   <v name="DFIELD">      0.00000000      0.00000000      0.00000000</v>
   <v name="WPLASMA">      0.00000000      0.00000000      0.00000000      0.00000000      0.00000000      0.00000000      0.00000000      0.00000000      0.00000000</v>
  </separator>
  <separator name="orbital magnetization" >
   <i type="logical" name="NUCIND"> F  </i>
   <v name="MAGPOS">      0.00000000      0.00000000      0.00000000</v>
   <i type="logical" name="LNICSALL"> T  </i>
   <i type="logical" name="ORBITALMAG"> F  </i>
   <i type="logical" name="LMAGBLOCH"> F  </i>
   <i type="logical" name="LCHIMAG"> F  </i>
   <i type="logical" name="LGAUGE"> T  </i>
   <i type="int" name="MAGATOM">     0</i>
   <v name="MAGDIPOL">      0.00000000      0.00000000      0.00000000</v>
   <v name="AVECCONST">      0.00000000      0.00000000      0.00000000</v>
  </separator>
  <separator name="response functions" >
   <i type="logical" name="LADDER"> F  </i>
   <i type="logical" name="LRPAFORCE"> F  </i>
   <i type="logical" name="LFXC"> F  </i>
   <i type="logical" name="LHARTREE"> T  </i>
   <i type="int" name="IBSE">     0</i>
   <v type="int" name="KPOINT">    -1     0     0     0</v>
   <i type="logical" name="LTCTE"> F  </i>
   <i type="logical" name="LTETE"> F  </i>
   <i type="logical" name="LTRIPLET"> F  </i>
   <i type="logical" name="LFXCEPS"> F  </i>
   <i type="logical" name="LFXHEG"> F  </i>
   <i type="int" name="NATURALO">     2</i>
   <i type="logical" name="L2ORDER"> F  </i>
   <i type="logical" name="LMP2LT"> F  </i>
   <i type="logical" name="LUSEW"> F  </i>
   <i name="ENCUTGW">     -2.00000000</i>
   <i name="ENCUTGWSOFT">     -2.00000000</i>
   <i name="ENCUTLF">     -1.00000000</i>
   <i type="int" name="LMAXMP2">    -1</i>
   <i name="SCISSOR">      0.00000000</i>
   <i type="int" name="NOMEGA">     0</i>
   <i type="int" name="NOMEGAR">     0</i>
   <i type="int" name="NBANDSGW">    -1</i>
   <i type="int" name="NBANDSO">    -1</i>
   <i type="int" name="NBANDSV">    -1</i>
   <i type="int" name="NELM">   100</i>
   <i type="int" name="NELMHF">     1</i>
   <i type="int" name="DIM">     3</i>
   <i type="int" name="ANTIRES">     0</i>
   <i name="OMEGAMAX">    -30.00000000</i>
   <i name="OMEGAMIN">    -30.00000000</i>
   <i name="OMEGATL">   -200.00000000</i>
   <i type="int" name="OMEGAGRID">   140</i>
   <i name="CSHIFT">     -0.10000000</i>
   <i type="logical" name="SELFENERGY"> F  </i>
   <i type="logical" name="LSPECTRAL"> F  </i>
   <i type="logical" name="LSPECTRALGW"> F  </i>
   <i type="logical" name="LSINGLES"> F  </i>
   <i type="logical" name="LFERMIGW"> F  </i>
   <i type="logical" name="ODDONLYGW"> F  </i>
   <i type="logical" name="EVENONLYGW"> F  </i>
   <i type="int" name="NKREDLFX">     1</i>
   <i type="int" name="NKREDLFY">     1</i>
   <i type="int" name="NKREDLFZ">     1</i>
   <i type="int" name="MAXMEM">  2800</i>
   <i type="int" name="TELESCOPE">     0</i>
   <i type="int" name="TAUPAR">     1</i>
   <i type="int" name="OMEGAPAR">    -1</i>
   <i name="LAMBDA">      1.00000000</i>
  </separator>
  <separator name="External order field" >
   <i name="OFIELD_KAPPA">      0.00000000</i>
   <v name="OFIELD_K">      0.00000000      0.00000000      0.00000000</v>
   <i name="OFIELD_Q6_NEAR">      0.00000000</i>
   <i name="OFIELD_Q6_FAR">      0.00000000</i>
   <i name="OFIELD_A">      0.00000000</i>
  </separator>
 </parameters>
 <atominfo>
  <atoms>       4 </atoms>
  <types>       1 </types>
  <array name="atoms" >
   <dimension dim="1">ion</dimension>
   <field type="string">element</field>
   <field type="int">atomtype</field>
   <set>
    <rc><c>Al</c><c>   1</c></rc>
    <rc><c>Al</c><c>   1</c></rc>
    <rc><c>Al</c><c>   1</c></rc>
    <rc><c>Al</c><c>   1</c></rc>
   </set>
  </array>
  <array name="atomtypes" >
   <dimension dim="1">type</dimension>
   <field type="int">atomspertype</field>
   <field type="string">element</field>
   <field>mass</field>
   <field>valence</field>
   <field type="string">pseudopotential</field>
   <set>
    <rc><c>   4</c><c>Al</c><c>     26.98100000</c><c>      3.00000000</c><c>  PAW_PBE Al 04Jan2001                  </c></rc>
   </set>
  </array>
 </atominfo>
 <structure name="initialpos" >
  <crystal>
   <varray name="basis" >
    <v>       4.08359800       0.00000000       0.00000000 </v>
    <v>       0.00000000       4.04336400       0.00000000 </v>
    <v>       0.00000000       0.00000000       4.04336400 </v>
   </varray>
   <i name="volume">     66.76189610 </i>
   <varray name="rec_basis" >
    <v>       0.24488209       0.00000000       0.00000000 </v>
    <v>       0.00000000       0.24731882       0.00000000 </v>
    <v>       0.00000000       0.00000000       0.24731882 </v>
   </varray>
  </crystal>
  <varray name="positions" >
   <v>       0.00000000       0.00000000       0.00000000 </v>
   <v>       0.00000000       0.50000000       0.50000000 </v>
   <v>       0.50000000       0.00000000       0.50000000 </v>
   <v>       0.50000000       0.50000000       0.00000000 </v>
  </varray>
 </structure>
 <calculation>
  <scstep>
   <time name="dav">    0.46    0.47</time>
   <time name="total">    0.55    0.57</time>
   <energy>
    <i name="alphaZ">     -0.80496453 </i>
    <i name="ewald">   -292.93950441 </i>
    <i name="hartreedc">     -0.42324209 </i>
    <i name="XCdc">   -105.04146752 </i>
    <i name="pawpsdc">    264.80062850 </i>
    <i name="pawaedc">   -136.98248303 </i>
    <i name="eentropy">      0.00012212 </i>
    <i name="bandstr">     64.62314150 </i>
    <i name="atom">    214.15382826 </i>
    <i name="e_fr_energy">      7.38605879 </i>
    <i name="e_wo_entrp">      7.38593668 </i>
    <i name="e_0_energy">      7.38601809 </i>
   </energy>
  </scstep>
  <scstep>
   <time name="dav">    0.52    0.52</time>
   <time name="total">    0.52    0.52</time>
   <energy>
    <i name="e_fr_energy">    -14.26962659 </i>
    <i name="e_wo_entrp">    -14.26963702 </i>
    <i name="e_0_energy">    -14.26963007 </i>
   </energy>
  </scstep>
  <scstep>
   <time name="dav">    0.54    0.54</time>
   <time name="total">    0.54    0.54</time>
   <energy>
    <i name="e_fr_energy">    -15.05635051 </i>
    <i name="e_wo_entrp">    -15.05610118 </i>
    <i name="e_0_energy">    -15.05626740 </i>
   </energy>
  </scstep>
  <scstep>
   <time name="dav">    0.49    0.49</time>
   <time name="total">    0.49    0.49</time>
   <energy>
    <i name="e_fr_energy">    -15.06254335 </i>
    <i name="e_wo_entrp">    -15.06230378 </i>
    <i name="e_0_energy">    -15.06246349 </i>
   </energy>
  </scstep>
  <scstep>
   <time name="dav">    0.53    0.53</time>
   <time name="total">    0.58    0.58</time>
   <energy>
    <i name="e_fr_energy">    -15.06260492 </i>
    <i name="e_wo_entrp">    -15.06236530 </i>
    <i name="e_0_energy">    -15.06252505 </i>
   </energy>
  </scstep>
  <scstep>
   <time name="dav">    0.49    0.49</time>
   <time name="total">    0.62    0.62</time>
   <energy>
    <i name="e_fr_energy">    -15.01142919 </i>
    <i name="e_wo_entrp">    -15.01114671 </i>
    <i name="e_0_energy">    -15.01133503 </i>
   </energy>
  </scstep>
  <scstep>
   <time name="dav">    0.48    0.48</time>
   <time name="total">    0.61    0.61</time>
   <energy>
    <i name="e_fr_energy">    -14.97410105 </i>
    <i name="e_wo_entrp">    -14.97375611 </i>
    <i name="e_0_energy">    -14.97398607 </i>
   </energy>
  </scstep>
  <scstep>
   <time name="dav">    0.52    0.52</time>
   <time name="total">    0.66    0.66</time>
   <energy>
    <i name="e_fr_energy">    -14.97399862 </i>
    <i name="e_wo_entrp">    -14.97365066 </i>
    <i name="e_0_energy">    -14.97388264 </i>
   </energy>
  </scstep>
  <scstep>
   <time name="dav">    0.37    0.37</time>
   <time name="total">    0.46    0.46</time>
   <energy>
    <i name="alphaZ">     -0.80496453 </i>
    <i name="ewald">   -292.93950441 </i>
    <i name="hartreedc">     -0.41607885 </i>
    <i name="XCdc">   -104.61264380 </i>
    <i name="pawpsdc">    551.95839458 </i>
    <i name="pawaedc">   -424.18399395 </i>
    <i name="eentropy">     -0.00034878 </i>
    <i name="bandstr">     41.87131971 </i>
    <i name="atom">    214.15382826 </i>
    <i name="e_fr_energy">    -14.97399178 </i>
    <i name="e_wo_entrp">    -14.97364299 </i>
    <i name="e_0_energy">    -14.97387552 </i>
   </energy>
  </scstep>
  <structure>
   <crystal>
    <varray name="basis" >
     <v>       4.08359800       0.00000000       0.00000000 </v>
     <v>       0.00000000       4.04336400       0.00000000 </v>
     <v>       0.00000000       0.00000000       4.04336400 </v>
    </varray>
    <i name="volume">     66.76189610 </i>
    <varray name="rec_basis" >
     <v>       0.24488209       0.00000000       0.00000000 </v>
     <v>       0.00000000       0.24731882       0.00000000 </v>
     <v>       0.00000000       0.00000000       0.24731882 </v>
    </varray>
   </crystal>
   <varray name="positions" >
    <v>       0.00000000       0.00000000       0.00000000 </v>
    <v>       0.00000000       0.50000000       0.50000000 </v>
    <v>       0.50000000       0.00000000       0.50000000 </v>
    <v>       0.50000000       0.50000000       0.00000000 </v>
   </varray>
  </structure>
  <varray name="forces" >
   <v>       0.00000000      -0.00000000       0.00000000 </v>
   <v>       0.00000000       0.00000000      -0.00000000 </v>
   <v>       0.00000000      -0.00000000       0.00000000 </v>
   <v>       0.00000000      -0.00000000      -0.00000000 </v>
  </varray>
  <varray name="stress" >
   <v>     -15.25711613      -0.00000000      -0.00000000 </v>
   <v>       0.00000000      -5.14681698       0.00000000 </v>
   <v>      -0.00000000       0.00000000      -5.14681698 </v>
  </varray>
  <energy>
   <i name="e_fr_energy">    -14.97399178 </i>
   <i name="e_wo_entrp">    -14.97387552 </i>
   <i name="e_0_energy">     -0.00034878 </i>
  </energy>
  <time name="totalsc">    5.77    5.80</time>
  <eigenvalues>
   <array>
    <dimension dim="1">band</dimension>
    <dimension dim="2">kpoint</dimension>
    <dimension dim="3">spin</dimension>
    <field>eigene</field>
    <field>occ</field>
    <set>
     <set comment="spin 1">
      <set comment="kpoint 1">
       <r>   -3.1741    1.0000 </r>
       <r>    4.8923    1.0000 </r>
       <r>    5.0325    1.0000 </r>
       <r>    5.0325    1.0000 </r>
       <r>    6.1469    1.0000 </r>
       <r>    6.3500    1.0000 </r>
       <r>    6.3500    1.0000 </r>
       <r>   13.1002    0.0000 </r>
       <r>   13.1002    0.0000 </r>
       <r>   13.2116    0.0000 </r>
       <r>   13.3292    0.0000 </r>
       <r>   13.3306    0.0000 </r>
      </set>
      <set comment="kpoint 2">
       <r>   -3.1008    1.0000 </r>
       <r>    3.9206    1.0000 </r>
       <r>    5.0997    1.0000 </r>
       <r>    5.0997    1.0000 </r>
       <r>    6.4211    1.0000 </r>
       <r>    6.4211    1.0000 </r>
       <r>    7.2461    1.0000 </r>
       <r>   11.7857    0.0000 </r>
       <r>   11.7857    0.0000 </r>
       <r>   12.8970    0.0000 </r>
       <r>   12.8970    0.0000 </r>
       <r>   13.2839    0.0000 </r>
      </set>
      <set comment="kpoint 3">
       <r>   -2.8809    1.0000 </r>
       <r>    2.6343    1.0000 </r>
       <r>    5.3014    1.0000 </r>
       <r>    5.3014    1.0000 </r>
       <r>    6.6332    1.0000 </r>
       <r>    6.6332    1.0000 </r>
       <r>    8.9147   -0.0000 </r>
       <r>   10.5000    0.0000 </r>
       <r>   10.5000    0.0000 </r>
       <r>   11.9079    0.0000 </r>
       <r>   11.9079    0.0000 </r>
       <r>   13.5005    0.0000 </r>
      </set>
      <set comment="kpoint 4">
       <r>   -2.5152    1.0000 </r>
       <r>    1.4424    1.0000 </r>
       <r>    5.6377    1.0000 </r>
       <r>    5.6377    1.0000 </r>
       <r>    6.9819    1.0000 </r>
       <r>    6.9819    1.0000 </r>
       <r>    9.3495    0.0000 </r>
       <r>    9.3495    0.0000 </r>
       <r>   10.7429    0.0000 </r>
       <r>   10.8657    0.0000 </r>
       <r>   10.8657    0.0000 </r>
       <r>   13.8609    0.0000 </r>
      </set>
      <set comment="kpoint 5">
       <r>   -2.0048    1.0000 </r>
       <r>    0.3759    1.0000 </r>
       <r>    6.1089    1.0000 </r>
       <r>    6.1089    1.0000 </r>
       <r>    7.4542    1.0000 </r>
       <r>    7.4542    1.0000 </r>
       <r>    8.3353   -0.0000 </r>
       <r>    8.3353   -0.0000 </r>
       <r>    9.9035    0.0000 </r>
       <r>    9.9035    0.0000 </r>
       <r>   12.6979    0.0000 </r>
       <r>   14.3648    0.0000 </r>
      </set>
      <set comment="kpoint 6">
       <r>   -1.3513    1.0000 </r>
       <r>   -0.5568    1.0000 </r>
       <r>    6.7153    1.0000 </r>
       <r>    6.7153    1.0000 </r>
       <r>    7.4573    1.0000 </r>
       <r>    7.4573    1.0000 </r>
       <r>    7.9782   -0.0000 </r>
       <r>    7.9782   -0.0000 </r>
       <r>    9.1287   -0.0000 </r>
       <r>    9.1287   -0.0000 </r>
       <r>   14.7680    0.0000 </r>
       <r>   15.0233    0.0000 </r>
      </set>
      <set comment="kpoint 7">
       <r>   -3.0993    1.0000 </r>
       <r>    4.0540    1.0000 </r>
       <r>    4.9610    1.0000 </r>
       <r>    5.1011    1.0000 </r>
       <r>    6.2195    1.0000 </r>
       <r>    6.4225    1.0000 </r>
       <r>    7.4583    1.0000 </r>
       <r>   11.7873    0.0000 </r>
       <r>   11.9159    0.0000 </r>
       <r>   12.8184    0.0000 </r>
       <r>   13.0295    0.0000 </r>
       <r>   13.1741    0.0000 </r>
      </set>
      <set comment="kpoint 8">
       <r>   -3.0260    1.0000 </r>
       <r>    3.9912    1.0000 </r>
       <r>    4.1232    1.0000 </r>
       <r>    5.1683    1.0000 </r>
       <r>    6.4931    1.0000 </r>
       <r>    7.3165    1.0000 </r>
       <r>    7.5270    1.0000 </r>
       <r>   10.8404    0.0000 </r>
       <r>   11.8549    0.0000 </r>
       <r>   11.9838    0.0000 </r>
       <r>   12.9627    0.0000 </r>
       <r>   13.0937    0.0000 </r>
      </set>
      <set comment="kpoint 9">
       <r>   -2.8063    1.0000 </r>
       <r>    2.7060    1.0000 </r>
       <r>    4.3305    1.0000 </r>
       <r>    5.3700    1.0000 </r>
       <r>    6.7030    1.0000 </r>
       <r>    7.7320    1.0164 </r>
       <r>    8.9829   -0.0000 </r>
       <r>    9.6104    0.0000 </r>
       <r>   10.5690    0.0000 </r>
       <r>   11.9769    0.0000 </r>
       <r>   12.1875    0.0000 </r>
       <r>   12.8690    0.0000 </r>
      </set>
      <set comment="kpoint 10">
       <r>   -2.4408    1.0000 </r>
       <r>    1.5148    1.0000 </r>
       <r>    4.6755    1.0000 </r>
       <r>    5.7063    1.0000 </r>
       <r>    7.0414    1.0000 </r>
       <r>    8.0676   -0.0000 </r>
       <r>    8.4847   -0.0000 </r>
       <r>    9.4184    0.0000 </r>
       <r>   10.8075    0.0000 </r>
       <r>   10.9404    0.0000 </r>
       <r>   11.8550    0.0000 </r>
       <r>   12.5267    0.0000 </r>
      </set>
      <set comment="kpoint 11">
       <r>   -1.9306    1.0000 </r>
       <r>    0.4489    1.0000 </r>
       <r>    5.1570    1.0000 </r>
       <r>    6.1775    1.0000 </r>
       <r>    7.2745    1.0000 </r>
       <r>    7.7206    1.0085 </r>
       <r>    8.4041   -0.0000 </r>
       <r>    8.5079   -0.0000 </r>
       <r>   10.0004    0.0000 </r>
       <r>   10.8920    0.0000 </r>
       <r>   12.7524    0.0000 </r>
       <r>   13.0005    0.0000 </r>
      </set>
      <set comment="kpoint 12">
       <r>   -1.2774    1.0000 </r>
       <r>   -0.4833    1.0000 </r>
       <r>    5.7729    1.0000 </r>
       <r>    6.5159    1.0000 </r>
       <r>    6.7840    1.0000 </r>
       <r>    7.5261    1.0000 </r>
       <r>    8.1936   -0.0000 </r>
       <r>    8.7455   -0.0000 </r>
       <r>    9.5026    0.0000 </r>
       <r>   10.0523    0.0000 </r>
       <r>   13.6078    0.0000 </r>
       <r>   14.3489    0.0000 </r>
      </set>
      <set comment="kpoint 13">
       <r>   -2.8751    1.0000 </r>
       <r>    2.7463    1.0000 </r>
       <r>    5.1670    1.0000 </r>
       <r>    5.3067    1.0000 </r>
       <r>    6.4364    1.0000 </r>
       <r>    6.6387    1.0000 </r>
       <r>    9.1548   -0.0000 </r>
       <r>   10.4757    0.0000 </r>
       <r>   10.6069    0.0000 </r>
       <r>   11.8107    0.0000 </r>
       <r>   12.0176    0.0000 </r>
       <r>   13.3955    0.0000 </r>
      </set>
      <set comment="kpoint 14">
       <r>   -2.8019    1.0000 </r>
       <r>    2.8165    1.0000 </r>
       <r>    4.2030    1.0000 </r>
       <r>    5.3739    1.0000 </r>
       <r>    6.7071    1.0000 </r>
       <r>    7.5264    1.0000 </r>
       <r>    9.2211    0.0000 </r>
       <r>    9.5902    0.0000 </r>
       <r>   10.6746    0.0000 </r>
       <r>   12.0624    0.0000 </r>
       <r>   12.0848    0.0000 </r>
       <r>   12.7731    0.0000 </r>
      </set>
      <set comment="kpoint 15">
       <r>   -2.5825    1.0000 </r>
       <r>    2.9209    1.0000 </r>
       <r>    3.0270    1.0000 </r>
       <r>    5.5757    1.0000 </r>
       <r>    6.9036    1.0000 </r>
       <r>    8.3819   -0.0000 </r>
       <r>    9.1850    0.0000 </r>
       <r>    9.4170    0.0000 </r>
       <r>   10.7761    0.0000 </r>
       <r>   10.8777    0.0000 </r>
       <r>   12.1853    0.0000 </r>
       <r>   12.2873    0.0000 </r>
      </set>
      <set comment="kpoint 16">
       <r>   -2.2176    1.0000 </r>
       <r>    1.7319    1.0000 </r>
       <r>    3.3772    1.0000 </r>
       <r>    5.9122    1.0000 </r>
       <r>    7.0020    1.0000 </r>
       <r>    7.4935    1.0000 </r>
       <r>    9.6253    0.0000 </r>
       <r>    9.7215    0.0000 </r>
       <r>   10.9918    0.0000 </r>
       <r>   11.1782    0.0000 </r>
       <r>   11.2162    0.0000 </r>
       <r>   12.6322    0.0000 </r>
      </set>
      <set comment="kpoint 17">
       <r>   -1.7082    1.0000 </r>
       <r>    0.6676    1.0000 </r>
       <r>    3.8660    1.0000 </r>
       <r>    6.1325    1.0000 </r>
       <r>    6.3836    1.0000 </r>
       <r>    7.8293    0.3389 </r>
       <r>    8.6108   -0.0000 </r>
       <r>    9.8519    0.0000 </r>
       <r>   10.5423    0.0000 </r>
       <r>   11.6896    0.0000 </r>
       <r>   12.4974    0.0000 </r>
       <r>   12.7689    0.0000 </r>
      </set>
      <set comment="kpoint 18">
       <r>   -1.0560    1.0000 </r>
       <r>   -0.2631    1.0000 </r>
       <r>    4.4916    1.0000 </r>
       <r>    5.2505    1.0000 </r>
       <r>    6.9902    1.0000 </r>
       <r>    7.7325    1.0168 </r>
       <r>    8.4368   -0.0000 </r>
       <r>    9.1657   -0.0000 </r>
       <r>   10.9576    0.0000 </r>
       <r>   11.6632    0.0000 </r>
       <r>   12.2975    0.0000 </r>
       <r>   13.0391    0.0000 </r>
      </set>
      <set comment="kpoint 19">
       <r>   -2.5021    1.0000 </r>
       <r>    1.5324    1.0000 </r>
       <r>    5.5104    1.0000 </r>
       <r>    5.6496    1.0000 </r>
       <r>    6.7936    1.0000 </r>
       <r>    6.9939    1.0000 </r>
       <r>    9.3011    0.0000 </r>
       <r>    9.4342    0.0000 </r>
       <r>   10.7492    0.0000 </r>
       <r>   10.9520    0.0000 </r>
       <r>   11.0158    0.0000 </r>
       <r>   13.7639    0.0000 </r>
      </set>
      <set comment="kpoint 20">
       <r>   -2.4291    1.0000 </r>
       <r>    1.6033    1.0000 </r>
       <r>    4.5553    1.0000 </r>
       <r>    5.7169    1.0000 </r>
       <r>    7.0511    1.0000 </r>
       <r>    7.8713   -0.0284 </r>
       <r>    8.4437   -0.0000 </r>
       <r>    9.5019    0.0000 </r>
       <r>   11.0240    0.0000 </r>
       <r>   11.0777    0.0000 </r>
       <r>   11.7315    0.0000 </r>
       <r>   12.4077    0.0000 </r>
      </set>
      <set comment="kpoint 21">
       <r>   -2.2103    1.0000 </r>
       <r>    1.8160    1.0000 </r>
       <r>    3.2784    1.0000 </r>
       <r>    5.9188    1.0000 </r>
       <r>    6.9909    1.0000 </r>
       <r>    7.4898    1.0000 </r>
       <r>    9.5066    0.0000 </r>
       <r>    9.7048    0.0000 </r>
       <r>   11.1210    0.0000 </r>
       <r>   11.2473    0.0000 </r>
       <r>   11.2481    0.0000 </r>
       <r>   12.5468    0.0000 </r>
      </set>
      <set comment="kpoint 22">
       <r>   -1.8463    1.0000 </r>
       <r>    2.0929    1.0000 </r>
       <r>    2.1697    1.0000 </r>
       <r>    5.9825    1.0000 </r>
       <r>    6.2554    1.0000 </r>
       <r>    7.7014    1.0021 </r>
       <r>    9.9700    0.0000 </r>
       <r>   10.0429    0.0000 </r>
       <r>   11.1440    0.0000 </r>
       <r>   11.2266    0.0000 </r>
       <r>   11.7635    0.0000 </r>
       <r>   11.8659    0.0000 </r>
      </set>
      <set comment="kpoint 23">
       <r>   -1.3383    1.0000 </r>
       <r>    1.0315    1.0000 </r>
       <r>    2.6635    1.0000 </r>
       <r>    4.9636    1.0000 </r>
       <r>    6.7271    1.0000 </r>
       <r>    8.1795   -0.0000 </r>
       <r>    8.9553   -0.0000 </r>
       <r>   10.4026    0.0000 </r>
       <r>   10.5162    0.0000 </r>
       <r>   11.9288    0.0000 </r>
       <r>   12.1802    0.0000 </r>
       <r>   12.7444    0.0000 </r>
      </set>
      <set comment="kpoint 24">
       <r>   -0.6878    1.0000 </r>
       <r>    0.1031    1.0000 </r>
       <r>    3.2958    1.0000 </r>
       <r>    4.0640    1.0000 </r>
       <r>    7.3341    1.0000 </r>
       <r>    8.0767   -0.0000 </r>
       <r>    8.8006   -0.0000 </r>
       <r>    9.5489    0.0000 </r>
       <r>   11.1245    0.0000 </r>
       <r>   11.8675    0.0000 </r>
       <r>   12.5555    0.0000 </r>
       <r>   12.7511    0.0000 </r>
      </set>
      <set comment="kpoint 25">
       <r>   -1.9816    1.0000 </r>
       <r>    0.4455    1.0000 </r>
       <r>    5.9917    1.0000 </r>
       <r>    6.1301    1.0000 </r>
       <r>    7.2799    1.0000 </r>
       <r>    7.4727    1.0000 </r>
       <r>    8.2655   -0.0000 </r>
       <r>    8.4002   -0.0000 </r>
       <r>    9.7713    0.0000 </r>
       <r>    9.9654    0.0000 </r>
       <r>   13.0061    0.0000 </r>
       <r>   14.2865    0.0000 </r>
      </set>
      <set comment="kpoint 26">
       <r>   -1.9089    1.0000 </r>
       <r>    0.5170    1.0000 </r>
       <r>    5.0471    1.0000 </r>
       <r>    6.1974    1.0000 </r>
       <r>    7.2367    1.0000 </r>
       <r>    7.7154    1.0061 </r>
       <r>    8.3316   -0.0000 </r>
       <r>    8.4678   -0.0000 </r>
       <r>   10.0534    0.0000 </r>
       <r>   10.7485    0.0000 </r>
       <r>   12.8902    0.0000 </r>
       <r>   13.0501    0.0000 </r>
      </set>
      <set comment="kpoint 27">
       <r>   -1.6909    1.0000 </r>
       <r>    0.7314    1.0000 </r>
       <r>    3.7774    1.0000 </r>
       <r>    6.0913    1.0000 </r>
       <r>    6.3995    1.0000 </r>
       <r>    7.8448    0.1269 </r>
       <r>    8.6705   -0.0000 </r>
       <r>    9.7796    0.0000 </r>
       <r>   10.4593    0.0000 </r>
       <r>   11.6035    0.0000 </r>
       <r>   12.3292    0.0000 </r>
       <r>   12.8262    0.0000 </r>
      </set>
      <set comment="kpoint 28">
       <r>   -1.3282    1.0000 </r>
       <r>    1.0880    1.0000 </r>
       <r>    2.5968    1.0000 </r>
       <r>    4.9435    1.0000 </r>
       <r>    6.7364    1.0000 </r>
       <r>    8.1891   -0.0000 </r>
       <r>    9.0083   -0.0000 </r>
       <r>   10.4468    0.0000 </r>
       <r>   10.4526    0.0000 </r>
       <r>   11.8737    0.0000 </r>
       <r>   11.9413    0.0000 </r>
       <r>   12.7244    0.0000 </r>
      </set>
      <set comment="kpoint 29">
       <r>   -0.8220    1.0000 </r>
       <r>    1.5393    1.0000 </r>
       <r>    1.5858    1.0000 </r>
       <r>    3.9069    1.0000 </r>
       <r>    7.2084    1.0000 </r>
       <r>    8.6769   -0.0000 </r>
       <r>    9.4376    0.0000 </r>
       <r>    9.4814    0.0000 </r>
       <r>   10.9155    0.0000 </r>
       <r>   10.9585    0.0000 </r>
       <r>   11.7116    0.0000 </r>
       <r>   13.1560    0.0000 </r>
      </set>
      <set comment="kpoint 30">
       <r>   -0.1738    1.0000 </r>
       <r>    0.6143    1.0000 </r>
       <r>    2.2232    1.0000 </r>
       <r>    2.9980    1.0000 </r>
       <r>    7.8158    0.5635 </r>
       <r>    8.5587   -0.0000 </r>
       <r>    9.2996    0.0000 </r>
       <r>   10.0496    0.0000 </r>
       <r>   10.0898    0.0000 </r>
       <r>   10.8332    0.0000 </r>
       <r>   11.5746    0.0000 </r>
       <r>   12.3088    0.0000 </r>
      </set>
      <set comment="kpoint 31">
       <r>   -1.3153    1.0000 </r>
       <r>   -0.5052    1.0000 </r>
       <r>    6.6110    1.0000 </r>
       <r>    6.7484    1.0000 </r>
       <r>    7.3688    1.0000 </r>
       <r>    7.5050    1.0000 </r>
       <r>    7.8413    0.1676 </r>
       <r>    7.9791   -0.0000 </r>
       <r>    9.0097   -0.0000 </r>
       <r>    9.1479   -0.0000 </r>
       <r>   14.9301    0.0000 </r>
       <r>   15.0318    0.0000 </r>
      </set>
      <set comment="kpoint 32">
       <r>   -1.2428    1.0000 </r>
       <r>   -0.4332    1.0000 </r>
       <r>    5.6762    1.0000 </r>
       <r>    6.4359    1.0000 </r>
       <r>    6.8158    1.0000 </r>
       <r>    7.5725    1.0000 </r>
       <r>    8.2189   -0.0000 </r>
       <r>    8.6964   -0.0000 </r>
       <r>    9.4227    0.0000 </r>
       <r>    9.8970    0.0000 </r>
       <r>   13.5088    0.0000 </r>
       <r>   14.2628    0.0000 </r>
      </set>
      <set comment="kpoint 33">
       <r>   -1.0258    1.0000 </r>
       <r>   -0.2174    1.0000 </r>
       <r>    4.4159    1.0000 </r>
       <r>    5.1906    1.0000 </r>
       <r>    7.0181    1.0000 </r>
       <r>    7.7750    1.0098 </r>
       <r>    8.4643   -0.0000 </r>
       <r>    9.2008    0.0000 </r>
       <r>   10.7622    0.0000 </r>
       <r>   11.4759    0.0000 </r>
       <r>   12.2232    0.0000 </r>
       <r>   12.9793    0.0000 </r>
      </set>
      <set comment="kpoint 34">
       <r>   -0.6648    1.0000 </r>
       <r>    0.1416    1.0000 </r>
       <r>    3.2420    1.0000 </r>
       <r>    4.0257    1.0000 </r>
       <r>    7.3553    1.0000 </r>
       <r>    8.1125   -0.0000 </r>
       <r>    8.8224   -0.0000 </r>
       <r>    9.5842    0.0000 </r>
       <r>   11.0727    0.0000 </r>
       <r>   11.8302    0.0000 </r>
       <r>   12.5045    0.0000 </r>
       <r>   12.5174    0.0000 </r>
      </set>
      <set comment="kpoint 35">
       <r>   -0.1609    1.0000 </r>
       <r>    0.6427    1.0000 </r>
       <r>    2.1897    1.0000 </r>
       <r>    2.9800    1.0000 </r>
       <r>    7.8277    0.3637 </r>
       <r>    8.5853   -0.0000 </r>
       <r>    9.3120    0.0000 </r>
       <r>   10.0579    0.0000 </r>
       <r>   10.0766    0.0000 </r>
       <r>   10.8160    0.0000 </r>
       <r>   11.5424    0.0000 </r>
       <r>   12.2912    0.0000 </r>
      </set>
      <set comment="kpoint 36">
       <r>    0.4843    1.0000 </r>
       <r>    1.2689    1.0000 </r>
       <r>    1.2844    1.0000 </r>
       <r>    2.0645    1.0000 </r>
       <r>    8.4355   -0.0000 </r>
       <r>    9.1788   -0.0000 </r>
       <r>    9.1934    0.0000 </r>
       <r>    9.9326    0.0000 </r>
       <r>    9.9370    0.0000 </r>
       <r>   10.6792    0.0000 </r>
       <r>   10.6941    0.0000 </r>
       <r>   11.4350    0.0000 </r>
      </set>
      <set comment="kpoint 37">
       <r>   -3.0245    1.0000 </r>
       <r>    4.1246    1.0000 </r>
       <r>    4.1246    1.0000 </r>
       <r>    5.0296    1.0000 </r>
       <r>    6.2918    1.0000 </r>
       <r>    7.5283    1.0000 </r>
       <r>    7.5283    1.0000 </r>
       <r>   10.9676    0.0000 </r>
       <r>   11.8567    0.0000 </r>
       <r>   11.8567    0.0000 </r>
       <r>   12.8840    0.0000 </r>
       <r>   12.8840    0.0000 </r>
      </set>
      <set comment="kpoint 38">
       <r>   -2.9512    1.0000 </r>
       <r>    4.0618    1.0000 </r>
       <r>    4.1937    1.0000 </r>
       <r>    4.1937    1.0000 </r>
       <r>    7.3863    1.0000 </r>
       <r>    7.5964    1.0000 </r>
       <r>    7.5964    1.0000 </r>
       <r>   10.9103    0.0000 </r>
       <r>   10.9103    0.0000 </r>
       <r>   11.0359    0.0000 </r>
       <r>   13.5525    0.0000 </r>
       <r>   13.5533    0.0000 </r>
      </set>
      <set comment="kpoint 39">
       <r>   -2.7316    1.0000 </r>
       <r>    2.7777    1.0000 </r>
       <r>    4.4009    1.0000 </r>
       <r>    4.4009    1.0000 </r>
       <r>    7.7972    0.8394 </r>
       <r>    7.7972    0.8394 </r>
       <r>    9.0492   -0.0000 </r>
       <r>    9.6836    0.0000 </r>
       <r>    9.6836    0.0000 </r>
       <r>   11.2416    0.0000 </r>
       <r>   12.9358    0.0000 </r>
       <r>   12.9358    0.0000 </r>
      </set>
      <set comment="kpoint 40">
       <r>   -2.3663    1.0000 </r>
       <r>    1.5872    1.0000 </r>
       <r>    4.7455    1.0000 </r>
       <r>    4.7455    1.0000 </r>
       <r>    8.0834   -0.0000 </r>
       <r>    8.0834   -0.0000 </r>
       <r>    8.6004   -0.0000 </r>
       <r>    8.6004   -0.0000 </r>
       <r>   10.8580    0.0000 </r>
       <r>   11.5958    0.0000 </r>
       <r>   11.9248    0.0000 </r>
       <r>   11.9248    0.0000 </r>
      </set>
      <set comment="kpoint 41">
       <r>   -1.8564    1.0000 </r>
       <r>    0.5218    1.0000 </r>
       <r>    5.2261    1.0000 </r>
       <r>    5.2261    1.0000 </r>
       <r>    7.4782    1.0000 </r>
       <r>    7.4782    1.0000 </r>
       <r>    8.6598   -0.0000 </r>
       <r>    8.6598   -0.0000 </r>
       <r>   10.9679    0.0000 </r>
       <r>   10.9679    0.0000 </r>
       <r>   12.0203    0.0000 </r>
       <r>   12.8561    0.0000 </r>
      </set>
      <set comment="kpoint 42">
       <r>   -1.2036    1.0000 </r>
       <r>   -0.4099    1.0000 </r>
       <r>    5.8347    1.0000 </r>
       <r>    5.8347    1.0000 </r>
       <r>    6.6148    1.0000 </r>
       <r>    6.6148    1.0000 </r>
       <r>    9.1960    0.0000 </r>
       <r>    9.1960    0.0000 </r>
       <r>   10.1676    0.0000 </r>
       <r>   10.1676    0.0000 </r>
       <r>   12.6388    0.0000 </r>
       <r>   13.3775    0.0000 </r>
      </set>
      <set comment="kpoint 43">
       <r>   -2.8004    1.0000 </r>
       <r>    2.8179    1.0000 </r>
       <r>    4.3360    1.0000 </r>
       <r>    5.2356    1.0000 </r>
       <r>    6.5070    1.0000 </r>
       <r>    7.7372    1.0209 </r>
       <r>    9.2224    0.0000 </r>
       <r>    9.7162    0.0000 </r>
       <r>   10.5449    0.0000 </r>
       <r>   11.8797    0.0000 </r>
       <r>   12.0648    0.0000 </r>
       <r>   12.9858    0.0000 </r>
      </set>
      <set comment="kpoint 44">
       <r>   -2.7272    1.0000 </r>
       <r>    2.8881    1.0000 </r>
       <r>    4.2735    1.0000 </r>
       <r>    4.4050    1.0000 </r>
       <r>    7.5933    1.0000 </r>
       <r>    7.8010    0.7911 </r>
       <r>    9.2860    0.0000 </r>
       <r>    9.6636    0.0000 </r>
       <r>    9.7869    0.0000 </r>
       <r>   11.1214    0.0000 </r>
       <r>   12.8400    0.0000 </r>
       <r>   13.0510    0.0000 </r>
      </set>
      <set comment="kpoint 45">
       <r>   -2.5080    1.0000 </r>
       <r>    2.9925    1.0000 </r>
       <r>    3.0985    1.0000 </r>
       <r>    4.6117    1.0000 </r>
       <r>    7.9449   -0.0011 </r>
       <r>    8.5035   -0.0000 </r>
       <r>    9.2319    0.0000 </r>
       <r>    9.4391    0.0000 </r>
       <r>    9.9381    0.0000 </r>
       <r>   10.0129    0.0000 </r>
       <r>   13.1365    0.0000 </r>
       <r>   13.2473    0.0000 </r>
      </set>
      <set comment="kpoint 46">
       <r>   -2.1432    1.0000 </r>
       <r>    1.8042    1.0000 </r>
       <r>    3.4485    1.0000 </r>
       <r>    4.9549    1.0000 </r>
       <r>    7.2336    1.0000 </r>
       <r>    8.4178   -0.0000 </r>
       <r>    8.7066   -0.0000 </r>
       <r>    9.8616    0.0000 </r>
       <r>   10.2829    0.0000 </r>
       <r>   11.1198    0.0000 </r>
       <r>   12.1367    0.0000 </r>
       <r>   13.4600    0.0000 </r>
      </set>
      <set comment="kpoint 47">
       <r>   -1.6342    1.0000 </r>
       <r>    0.7405    1.0000 </r>
       <r>    3.9369    1.0000 </r>
       <r>    5.4267    1.0000 </r>
       <r>    6.2378    1.0000 </r>
       <r>    7.7032    1.0024 </r>
       <r>    8.8782   -0.0000 </r>
       <r>   10.2688    0.0000 </r>
       <r>   10.7775    0.0000 </r>
       <r>   11.2240    0.0000 </r>
       <r>   12.5667    0.0000 </r>
       <r>   13.0185    0.0000 </r>
      </set>
      <set comment="kpoint 48">
       <r>   -0.9823    1.0000 </r>
       <r>   -0.1898    1.0000 </r>
       <r>    4.5613    1.0000 </r>
       <r>    5.3113    1.0000 </r>
       <r>    6.0796    1.0000 </r>
       <r>    6.8211    1.0000 </r>
       <r>    9.4788    0.0000 </r>
       <r>   10.1621    0.0000 </r>
       <r>   11.0685    0.0000 </r>
       <r>   11.3894    0.0000 </r>
       <r>   11.7376    0.0000 </r>
       <r>   12.1310    0.0000 </r>
      </set>
      <set comment="kpoint 49">
       <r>   -2.4277    1.0000 </r>
       <r>    1.6047    1.0000 </r>
       <r>    4.6877    1.0000 </r>
       <r>    5.5792    1.0000 </r>
       <r>    6.8568    1.0000 </r>
       <r>    8.0786   -0.0000 </r>
       <r>    8.5652   -0.0000 </r>
       <r>    9.3702    0.0000 </r>
       <r>   10.8244    0.0000 </r>
       <r>   11.0786    0.0000 </r>
       <r>   11.9436    0.0000 </r>
       <r>   12.4111    0.0000 </r>
      </set>
      <set comment="kpoint 50">
       <r>   -2.3547    1.0000 </r>
       <r>    1.6757    1.0000 </r>
       <r>    4.6255    1.0000 </r>
       <r>    4.7564    1.0000 </r>
       <r>    7.9128   -0.0120 </r>
       <r>    8.0850   -0.0000 </r>
       <r>    8.5671   -0.0000 </r>
       <r>    8.6566   -0.0000 </r>
       <r>   11.1014    0.0000 </r>
       <r>   11.5084    0.0000 </r>
       <r>   11.8015    0.0000 </r>
       <r>   12.0117    0.0000 </r>
      </set>
      <set comment="kpoint 51">
       <r>   -2.1360    1.0000 </r>
       <r>    1.8882    1.0000 </r>
       <r>    3.3498    1.0000 </r>
       <r>    4.9617    1.0000 </r>
       <r>    7.2127    1.0000 </r>
       <r>    8.4238   -0.0000 </r>
       <r>    8.7779   -0.0000 </r>
       <r>    9.6458    0.0000 </r>
       <r>   10.1973    0.0000 </r>
       <r>   11.3760    0.0000 </r>
       <r>   12.2174    0.0000 </r>
       <r>   13.3237    0.0000 </r>
      </set>
      <set comment="kpoint 52">
       <r>   -1.7722    1.0000 </r>
       <r>    2.1650    1.0000 </r>
       <r>    2.2418    1.0000 </r>
       <r>    5.2956    1.0000 </r>
       <r>    6.0888    1.0000 </r>
       <r>    8.7541   -0.0000 </r>
       <r>    9.0686   -0.0000 </r>
       <r>    9.1408   -0.0000 </r>
       <r>   11.4143    0.0000 </r>
       <r>   11.6530    0.0000 </r>
       <r>   12.5181    0.0000 </r>
       <r>   12.5746    0.0000 </r>
      </set>
      <set comment="kpoint 53">
       <r>   -1.2644    1.0000 </r>
       <r>    1.1041    1.0000 </r>
       <r>    2.7353    1.0000 </r>
       <r>    5.0252    1.0000 </r>
       <r>    5.8123    1.0000 </r>
       <r>    8.0550   -0.0000 </r>
       <r>    9.2315    0.0000 </r>
       <r>    9.6212    0.0000 </r>
       <r>   11.3905    0.0000 </r>
       <r>   11.8531    0.0000 </r>
       <r>   12.2813    0.0000 </r>
       <r>   12.8879    0.0000 </r>
      </set>
      <set comment="kpoint 54">
       <r>   -0.6142    1.0000 </r>
       <r>    0.1762    1.0000 </r>
       <r>    3.3671    1.0000 </r>
       <r>    4.1341    1.0000 </r>
       <r>    6.4192    1.0000 </r>
       <r>    7.1701    1.0000 </r>
       <r>    9.8425    0.0000 </r>
       <r>   10.2334    0.0000 </r>
       <r>   10.5761    0.0000 </r>
       <r>   10.9780    0.0000 </r>
       <r>   12.8236    0.0000 </r>
       <r>   13.5161    0.0000 </r>
      </set>
      <set comment="kpoint 55">
       <r>   -1.9074    1.0000 </r>
       <r>    0.5185    1.0000 </r>
       <r>    5.1787    1.0000 </r>
       <r>    6.0604    1.0000 </r>
       <r>    7.2213    1.0000 </r>
       <r>    7.6613    1.0000 </r>
       <r>    8.3345   -0.0000 </r>
       <r>    8.5201   -0.0000 </r>
       <r>    9.8741    0.0000 </r>
       <r>   10.9579    0.0000 </r>
       <r>   12.8950    0.0000 </r>
       <r>   13.0484    0.0000 </r>
      </set>
      <set comment="kpoint 56">
       <r>   -1.8347    1.0000 </r>
       <r>    0.5900    1.0000 </r>
       <r>    5.1164    1.0000 </r>
       <r>    5.2463    1.0000 </r>
       <r>    7.4170    1.0000 </r>
       <r>    7.5355    1.0000 </r>
       <r>    8.4805   -0.0000 </r>
       <r>    8.6767   -0.0000 </r>
       <r>   10.8256    0.0000 </r>
       <r>   11.0309    0.0000 </r>
       <r>   11.9207    0.0000 </r>
       <r>   13.1557    0.0000 </r>
      </set>
      <set comment="kpoint 57">
       <r>   -1.6168    1.0000 </r>
       <r>    0.8042    1.0000 </r>
       <r>    3.8483    1.0000 </r>
       <r>    5.4418    1.0000 </r>
       <r>    6.1972    1.0000 </r>
       <r>    7.7626    1.0342 </r>
       <r>    8.8939   -0.0000 </r>
       <r>   10.0725    0.0000 </r>
       <r>   10.6934    0.0000 </r>
       <r>   11.2660    0.0000 </r>
       <r>   12.3988    0.0000 </r>
       <r>   12.9604    0.0000 </r>
      </set>
      <set comment="kpoint 58">
       <r>   -1.2543    1.0000 </r>
       <r>    1.1606    1.0000 </r>
       <r>    2.6686    1.0000 </r>
       <r>    5.0056    1.0000 </r>
       <r>    5.8211    1.0000 </r>
       <r>    8.1084   -0.0000 </r>
       <r>    9.2410    0.0000 </r>
       <r>    9.5577    0.0000 </r>
       <r>   11.4049    0.0000 </r>
       <r>   11.8334    0.0000 </r>
       <r>   12.0727    0.0000 </r>
       <r>   12.8572    0.0000 </r>
      </set>
      <set comment="kpoint 59">
       <r>   -0.7484    1.0000 </r>
       <r>    1.6118    1.0000 </r>
       <r>    1.6582    1.0000 </r>
       <r>    3.9772    1.0000 </r>
       <r>    6.2918    1.0000 </r>
       <r>    8.5433   -0.0000 </r>
       <r>    8.5875   -0.0000 </r>
       <r>    9.7220    0.0000 </r>
       <r>   10.8266    0.0000 </r>
       <r>   11.9264    0.0000 </r>
       <r>   11.9682    0.0000 </r>
       <r>   13.9017    0.0000 </r>
      </set>
      <set comment="kpoint 60">
       <r>   -0.1005    1.0000 </r>
       <r>    0.6872    1.0000 </r>
       <r>    2.2953    1.0000 </r>
       <r>    3.0696    1.0000 </r>
       <r>    6.9072    1.0000 </r>
       <r>    7.6586    1.0000 </r>
       <r>    9.2009    0.0000 </r>
       <r>    9.9479    0.0000 </r>
       <r>   10.3346    0.0000 </r>
       <r>   11.0732    0.0000 </r>
       <r>   12.5815    0.0000 </r>
       <r>   13.3100    0.0000 </r>
      </set>
      <set comment="kpoint 61">
       <r>   -1.2414    1.0000 </r>
       <r>   -0.4318    1.0000 </r>
       <r>    5.8063    1.0000 </r>
       <r>    6.5612    1.0000 </r>
       <r>    6.6799    1.0000 </r>
       <r>    7.4378    1.0000 </r>
       <r>    8.0360   -0.0000 </r>
       <r>    8.6518   -0.0000 </r>
       <r>    9.4779    0.0000 </r>
       <r>   10.0949    0.0000 </r>
       <r>   13.5153    0.0000 </r>
       <r>   14.2705    0.0000 </r>
      </set>
      <set comment="kpoint 62">
       <r>   -1.1690    1.0000 </r>
       <r>   -0.3598    1.0000 </r>
       <r>    5.7400    1.0000 </r>
       <r>    5.8646    1.0000 </r>
       <r>    6.5364    1.0000 </r>
       <r>    6.6592    1.0000 </r>
       <r>    9.0408   -0.0000 </r>
       <r>    9.2032    0.0000 </r>
       <r>   10.0310    0.0000 </r>
       <r>   10.1944    0.0000 </r>
       <r>   12.5458    0.0000 </r>
       <r>   13.2987    0.0000 </r>
      </set>
      <set comment="kpoint 63">
       <r>   -0.9521    1.0000 </r>
       <r>   -0.1441    1.0000 </r>
       <r>    4.4858    1.0000 </r>
       <r>    5.2530    1.0000 </r>
       <r>    6.1062    1.0000 </r>
       <r>    6.8638    1.0000 </r>
       <r>    9.5046    0.0000 </r>
       <r>   10.1708    0.0000 </r>
       <r>   10.8994    0.0000 </r>
       <r>   11.3165    0.0000 </r>
       <r>   11.5520    0.0000 </r>
       <r>   12.0727    0.0000 </r>
      </set>
      <set comment="kpoint 64">
       <r>   -0.5913    1.0000 </r>
       <r>    0.2147    1.0000 </r>
       <r>    3.3133    1.0000 </r>
       <r>    4.0959    1.0000 </r>
       <r>    6.4407    1.0000 </r>
       <r>    7.2064    1.0000 </r>
       <r>    9.8637    0.0000 </r>
       <r>   10.1818    0.0000 </r>
       <r>   10.6095    0.0000 </r>
       <r>   10.9410    0.0000 </r>
       <r>   12.5917    0.0000 </r>
       <r>   13.3004    0.0000 </r>
      </set>
      <set comment="kpoint 65">
       <r>   -0.0877    1.0000 </r>
       <r>    0.7156    1.0000 </r>
       <r>    2.2617    1.0000 </r>
       <r>    3.0516    1.0000 </r>
       <r>    6.9193    1.0000 </r>
       <r>    7.6855    1.0005 </r>
       <r>    9.1689   -0.0000 </r>
       <r>    9.9306    0.0000 </r>
       <r>   10.3468    0.0000 </r>
       <r>   11.0998    0.0000 </r>
       <r>   12.5491    0.0000 </r>
       <r>   13.2921    0.0000 </r>
      </set>
      <set comment="kpoint 66">
       <r>    0.5573    1.0000 </r>
       <r>    1.3414    1.0000 </r>
       <r>    1.3569    1.0000 </r>
       <r>    2.1367    1.0000 </r>
       <r>    7.5348    1.0000 </r>
       <r>    8.2854   -0.0000 </r>
       <r>    8.3002   -0.0000 </r>
       <r>    9.0492   -0.0000 </r>
       <r>   10.9584    0.0000 </r>
       <r>   11.6954    0.0000 </r>
       <r>   11.7103    0.0000 </r>
       <r>   12.4434    0.0000 </r>
      </set>
      <set comment="kpoint 67">
       <r>   -2.5766    1.0000 </r>
       <r>    3.0326    1.0000 </r>
       <r>    3.0326    1.0000 </r>
       <r>    5.4417    1.0000 </r>
       <r>    6.7127    1.0000 </r>
       <r>    8.4827   -0.0000 </r>
       <r>    9.4216    0.0000 </r>
       <r>    9.4216    0.0000 </r>
       <r>   10.7524    0.0000 </r>
       <r>   10.7524    0.0000 </r>
       <r>   12.0883    0.0000 </r>
       <r>   12.0883    0.0000 </r>
      </set>
      <set comment="kpoint 68">
       <r>   -2.5036    1.0000 </r>
       <r>    3.1027    1.0000 </r>
       <r>    3.1027    1.0000 </r>
       <r>    4.4846    1.0000 </r>
       <r>    7.7714    1.0209 </r>
       <r>    8.5764   -0.0000 </r>
       <r>    9.4392    0.0000 </r>
       <r>    9.4392    0.0000 </r>
       <r>    9.9216    0.0000 </r>
       <r>    9.9216    0.0000 </r>
       <r>   13.0410    0.0000 </r>
       <r>   13.0410    0.0000 </r>
      </set>
      <set comment="kpoint 69">
       <r>   -2.2847    1.0000 </r>
       <r>    3.2069    1.0000 </r>
       <r>    3.3127    1.0000 </r>
       <r>    3.3127    1.0000 </r>
       <r>    8.5918   -0.0000 </r>
       <r>    8.5918   -0.0000 </r>
       <r>    8.6813   -0.0000 </r>
       <r>    9.5296    0.0000 </r>
       <r>    9.7516    0.0000 </r>
       <r>    9.7516    0.0000 </r>
       <r>   13.8848    0.0000 </r>
       <r>   14.1243    0.0000 </r>
      </set>
      <set comment="kpoint 70">
       <r>   -1.9205    1.0000 </r>
       <r>    2.0208    1.0000 </r>
       <r>    3.6620    1.0000 </r>
       <r>    3.6620    1.0000 </r>
       <r>    7.4641    1.0000 </r>
       <r>    7.4641    1.0000 </r>
       <r>    9.0516   -0.0000 </r>
       <r>   10.0753    0.0000 </r>
       <r>   10.0753    0.0000 </r>
       <r>   11.3188    0.0000 </r>
       <r>   12.7678    0.0000 </r>
       <r>   13.6598    0.0000 </r>
      </set>
      <set comment="kpoint 71">
       <r>   -1.4122    1.0000 </r>
       <r>    0.9588    1.0000 </r>
       <r>    4.1486    1.0000 </r>
       <r>    4.1486    1.0000 </r>
       <r>    6.4452    1.0000 </r>
       <r>    6.4452    1.0000 </r>
       <r>    9.5340    0.0000 </r>
       <r>   10.5375    0.0000 </r>
       <r>   10.5375    0.0000 </r>
       <r>   11.7674    0.0000 </r>
       <r>   12.7765    0.0000 </r>
       <r>   12.7765    0.0000 </r>
      </set>
      <set comment="kpoint 72">
       <r>   -0.7614    1.0000 </r>
       <r>    0.0299    1.0000 </r>
       <r>    4.7628    1.0000 </r>
       <r>    4.7628    1.0000 </r>
       <r>    5.5629    1.0000 </r>
       <r>    5.5629    1.0000 </r>
       <r>   10.1475    0.0000 </r>
       <r>   10.8926    0.0000 </r>
       <r>   11.0927    0.0000 </r>
       <r>   11.0927    0.0000 </r>
       <r>   11.9868    0.0000 </r>
       <r>   11.9868    0.0000 </r>
      </set>
      <set comment="kpoint 73">
       <r>   -2.2045    1.0000 </r>
       <r>    1.8216    1.0000 </r>
       <r>    3.3897    1.0000 </r>
       <r>    5.7854    1.0000 </r>
       <r>    6.9419    1.0000 </r>
       <r>    7.4493    1.0000 </r>
       <r>    9.5775    0.0000 </r>
       <r>    9.7271    0.0000 </r>
       <r>   11.0671    0.0000 </r>
       <r>   11.0980    0.0000 </r>
       <r>   11.2481    0.0000 </r>
       <r>   12.4531    0.0000 </r>
      </set>
      <set comment="kpoint 74">
       <r>   -2.1316    1.0000 </r>
       <r>    1.8924    1.0000 </r>
       <r>    3.4596    1.0000 </r>
       <r>    4.8354    1.0000 </r>
       <r>    7.3074    1.0000 </r>
       <r>    8.2290   -0.0000 </r>
       <r>    8.6651   -0.0000 </r>
       <r>    9.8704    0.0000 </r>
       <r>   10.1774    0.0000 </r>
       <r>   11.3792    0.0000 </r>
       <r>   12.0145    0.0000 </r>
       <r>   13.3778    0.0000 </r>
      </set>
      <set comment="kpoint 75">
       <r>   -1.9133    1.0000 </r>
       <r>    2.1047    1.0000 </r>
       <r>    3.5635    1.0000 </r>
       <r>    3.6689    1.0000 </r>
       <r>    7.4424    1.0000 </r>
       <r>    7.5431    1.0000 </r>
       <r>    8.9583   -0.0000 </r>
       <r>    9.8499    0.0000 </r>
       <r>   10.0818    0.0000 </r>
       <r>   11.5839    0.0000 </r>
       <r>   12.7468    0.0000 </r>
       <r>   13.5245    0.0000 </r>
      </set>
      <set comment="kpoint 76">
       <r>   -1.5500    1.0000 </r>
       <r>    2.3811    1.0000 </r>
       <r>    2.4577    1.0000 </r>
       <r>    4.0162    1.0000 </r>
       <r>    6.2961    1.0000 </r>
       <r>    7.8183    0.5210 </r>
       <r>    7.8916   -0.0302 </r>
       <r>   10.4226    0.0000 </r>
       <r>   11.6232    0.0000 </r>
       <r>   11.6542    0.0000 </r>
       <r>   11.9121    0.0000 </r>
       <r>   13.9955    0.0000 </r>
      </set>
      <set comment="kpoint 77">
       <r>   -1.0430    1.0000 </r>
       <r>    1.3219    1.0000 </r>
       <r>    2.9503    1.0000 </r>
       <r>    4.4924    1.0000 </r>
       <r>    5.2768    1.0000 </r>
       <r>    6.7965    1.0000 </r>
       <r>    8.3730   -0.0000 </r>
       <r>   10.6170    0.0000 </r>
       <r>   10.8945    0.0000 </r>
       <r>   12.3348    0.0000 </r>
       <r>   13.1511    0.0000 </r>
       <r>   13.5745    0.0000 </r>
      </set>
      <set comment="kpoint 78">
       <r>   -0.3938    1.0000 </r>
       <r>    0.3955    1.0000 </r>
       <r>    3.5803    1.0000 </r>
       <r>    4.3378    1.0000 </r>
       <r>    5.1544    1.0000 </r>
       <r>    5.9044    1.0000 </r>
       <r>    8.9885   -0.0000 </r>
       <r>    9.7373    0.0000 </r>
       <r>   11.4911    0.0000 </r>
       <r>   12.1801    0.0000 </r>
       <r>   13.0607    0.0000 </r>
       <r>   13.7223    0.0000 </r>
      </set>
      <set comment="kpoint 79">
       <r>   -1.6851    1.0000 </r>
       <r>    0.7371    1.0000 </r>
       <r>    3.8881    1.0000 </r>
       <r>    6.1940    1.0000 </r>
       <r>    6.2668    1.0000 </r>
       <r>    7.6540    1.0000 </r>
       <r>    8.5415   -0.0000 </r>
       <r>    9.7680    0.0000 </r>
       <r>   10.5117    0.0000 </r>
       <r>   11.5816    0.0000 </r>
       <r>   12.5676    0.0000 </r>
       <r>   12.7464    0.0000 </r>
      </set>
      <set comment="kpoint 80">
       <r>   -1.6125    1.0000 </r>
       <r>    0.8085    1.0000 </r>
       <r>    3.9575    1.0000 </r>
       <r>    5.3198    1.0000 </r>
       <r>    6.2989    1.0000 </r>
       <r>    7.6406    1.0000 </r>
       <r>    8.6902   -0.0000 </r>
       <r>   10.2718    0.0000 </r>
       <r>   10.6735    0.0000 </r>
       <r>   11.0969    0.0000 </r>
       <r>   12.6353    0.0000 </r>
       <r>   12.9415    0.0000 </r>
      </set>
      <set comment="kpoint 81">
       <r>   -1.3949    1.0000 </r>
       <r>    1.0224    1.0000 </r>
       <r>    4.0604    1.0000 </r>
       <r>    4.1650    1.0000 </r>
       <r>    6.4034    1.0000 </r>
       <r>    6.5056    1.0000 </r>
       <r>    9.4492    0.0000 </r>
       <r>   10.3225    0.0000 </r>
       <r>   10.5519    0.0000 </r>
       <r>   11.7268    0.0000 </r>
       <r>   12.6103    0.0000 </r>
       <r>   12.8394    0.0000 </r>
      </set>
      <set comment="kpoint 82">
       <r>   -1.0330    1.0000 </r>
       <r>    1.3783    1.0000 </r>
       <r>    2.8838    1.0000 </r>
       <r>    4.5014    1.0000 </r>
       <r>    5.2572    1.0000 </r>
       <r>    6.8505    1.0000 </r>
       <r>    8.3090   -0.0000 </r>
       <r>   10.5974    0.0000 </r>
       <r>   10.9037    0.0000 </r>
       <r>   12.1022    0.0000 </r>
       <r>   13.1924    0.0000 </r>
       <r>   13.8540    0.0000 </r>
      </set>
      <set comment="kpoint 83">
       <r>   -0.5278    1.0000 </r>
       <r>    1.8288    1.0000 </r>
       <r>    1.8751    1.0000 </r>
       <r>    4.1821    1.0000 </r>
       <r>    5.0245    1.0000 </r>
       <r>    7.2879    1.0000 </r>
       <r>    7.3324    1.0000 </r>
       <r>    9.5861    0.0000 </r>
       <r>   11.3794    0.0000 </r>
       <r>   13.5102    0.0000 </r>
       <r>   13.5326    0.0000 </r>
       <r>   14.1429    0.0000 </r>
      </set>
      <set comment="kpoint 84">
       <r>    0.1191    1.0000 </r>
       <r>    0.9057    1.0000 </r>
       <r>    2.5112    1.0000 </r>
       <r>    3.2835    1.0000 </r>
       <r>    5.6381    1.0000 </r>
       <r>    6.3959    1.0000 </r>
       <r>    7.9502   -0.0007 </r>
       <r>    8.7022   -0.0000 </r>
       <r>   11.9810    0.0000 </r>
       <r>   12.7013    0.0000 </r>
       <r>   14.1763    0.0000 </r>
       <r>   14.8932    0.0000 </r>
      </set>
      <set comment="kpoint 85">
       <r>   -1.0201    1.0000 </r>
       <r>   -0.2117    1.0000 </r>
       <r>    4.5258    1.0000 </r>
       <r>    5.2989    1.0000 </r>
       <r>    6.8865    1.0000 </r>
       <r>    7.6446    1.0000 </r>
       <r>    8.2708   -0.0000 </r>
       <r>    9.0181   -0.0000 </r>
       <r>   10.9865    0.0000 </r>
       <r>   11.7123    0.0000 </r>
       <r>   12.2026    0.0000 </r>
       <r>   12.9603    0.0000 </r>
      </set>
      <set comment="kpoint 86">
       <r>   -0.9478    1.0000 </r>
       <r>   -0.1398    1.0000 </r>
       <r>    4.5939    1.0000 </r>
       <r>    5.3549    1.0000 </r>
       <r>    5.9869    1.0000 </r>
       <r>    6.7403    1.0000 </r>
       <r>    9.3044    0.0000 </r>
       <r>   10.0179    0.0000 </r>
       <r>   11.0836    0.0000 </r>
       <r>   11.2969    0.0000 </r>
       <r>   11.7841    0.0000 </r>
       <r>   12.0534    0.0000 </r>
      </set>
      <set comment="kpoint 87">
       <r>   -0.7312    1.0000 </r>
       <r>    0.0756    1.0000 </r>
       <r>    4.6896    1.0000 </r>
       <r>    4.7893    1.0000 </r>
       <r>    5.5051    1.0000 </r>
       <r>    5.6041    1.0000 </r>
       <r>   10.0746    0.0000 </r>
       <r>   10.8345    0.0000 </r>
       <r>   10.9051    0.0000 </r>
       <r>   11.0972    0.0000 </r>
       <r>   11.8228    0.0000 </r>
       <r>   12.0148    0.0000 </r>
      </set>
      <set comment="kpoint 88">
       <r>   -0.3709    1.0000 </r>
       <r>    0.4339    1.0000 </r>
       <r>    3.5267    1.0000 </r>
       <r>    4.3007    1.0000 </r>
       <r>    5.1752    1.0000 </r>
       <r>    5.9410    1.0000 </r>
       <r>    8.9367   -0.0000 </r>
       <r>    9.7003    0.0000 </r>
       <r>   11.5109    0.0000 </r>
       <r>   12.1894    0.0000 </r>
       <r>   12.8539    0.0000 </r>
       <r>   13.5089    0.0000 </r>
      </set>
      <set comment="kpoint 89">
       <r>    0.1320    1.0000 </r>
       <r>    0.9340    1.0000 </r>
       <r>    2.4777    1.0000 </r>
       <r>    3.2656    1.0000 </r>
       <r>    5.6504    1.0000 </r>
       <r>    6.4230    1.0000 </r>
       <r>    7.9179   -0.0089 </r>
       <r>    8.6849   -0.0000 </r>
       <r>   11.9931    0.0000 </r>
       <r>   12.7271    0.0000 </r>
       <r>   14.1421    0.0000 </r>
       <r>   14.6756    0.0000 </r>
      </set>
      <set comment="kpoint 90">
       <r>    0.7760    1.0000 </r>
       <r>    1.5589    1.0000 </r>
       <r>    1.5744    1.0000 </r>
       <r>    2.3529    1.0000 </r>
       <r>    6.2708    1.0000 </r>
       <r>    7.0278    1.0000 </r>
       <r>    7.0427    1.0000 </r>
       <r>    7.7975    0.8356 </r>
       <r>   12.5954    0.0000 </r>
       <r>   13.3168    0.0000 </r>
       <r>   13.3321    0.0000 </r>
       <r>   14.0507    0.0000 </r>
      </set>
      <set comment="kpoint 91">
       <r>   -1.8333    1.0000 </r>
       <r>    2.1824    1.0000 </r>
       <r>    2.1824    1.0000 </r>
       <r>    6.0635    1.0000 </r>
       <r>    6.1292    1.0000 </r>
       <r>    7.5165    1.0000 </r>
       <r>    9.9229    0.0000 </r>
       <r>    9.9229    0.0000 </r>
       <r>   11.1469    0.0000 </r>
       <r>   11.1469    0.0000 </r>
       <r>   11.8399    0.0000 </r>
       <r>   11.8399    0.0000 </r>
      </set>
      <set comment="kpoint 92">
       <r>   -1.7606    1.0000 </r>
       <r>    2.2530    1.0000 </r>
       <r>    2.2530    1.0000 </r>
       <r>    5.1796    1.0000 </r>
       <r>    6.1694    1.0000 </r>
       <r>    8.5558   -0.0000 </r>
       <r>    9.0266   -0.0000 </r>
       <r>    9.0266   -0.0000 </r>
       <r>   11.6511    0.0000 </r>
       <r>   11.6511    0.0000 </r>
       <r>   12.4075    0.0000 </r>
       <r>   12.4075    0.0000 </r>
      </set>
      <set comment="kpoint 93">
       <r>   -1.5428    1.0000 </r>
       <r>    2.4647    1.0000 </r>
       <r>    2.4647    1.0000 </r>
       <r>    3.9184    1.0000 </r>
       <r>    6.3765    1.0000 </r>
       <r>    7.7966    0.8463 </r>
       <r>    7.7966    0.8463 </r>
       <r>   10.1958    0.0000 </r>
       <r>   11.6022    0.0000 </r>
       <r>   11.9178    0.0000 </r>
       <r>   11.9178    0.0000 </r>
       <r>   13.8607    0.0000 </r>
      </set>
      <set comment="kpoint 94">
       <r>   -1.1805    1.0000 </r>
       <r>    2.7403    1.0000 </r>
       <r>    2.8167    1.0000 </r>
       <r>    2.8167    1.0000 </r>
       <r>    6.6479    1.0000 </r>
       <r>    6.6479    1.0000 </r>
       <r>    6.7219    1.0000 </r>
       <r>   10.4727    0.0000 </r>
       <r>   12.0013    0.0000 </r>
       <r>   12.2605    0.0000 </r>
       <r>   12.2605    0.0000 </r>
       <r>   15.0793    0.0000 </r>
      </set>
      <set comment="kpoint 95">
       <r>   -0.6748    1.0000 </r>
       <r>    1.6842    1.0000 </r>
       <r>    3.3073    1.0000 </r>
       <r>    3.3073    1.0000 </r>
       <r>    5.6192    1.0000 </r>
       <r>    5.6192    1.0000 </r>
       <r>    7.2046    1.0000 </r>
       <r>    9.4608    0.0000 </r>
       <r>   12.7219    0.0000 </r>
       <r>   12.7219    0.0000 </r>
       <r>   13.9280    0.0000 </r>
       <r>   14.7971    0.0000 </r>
      </set>
      <set comment="kpoint 96">
       <r>   -0.0272    1.0000 </r>
       <r>    0.7601    1.0000 </r>
       <r>    3.9280    1.0000 </r>
       <r>    3.9280    1.0000 </r>
       <r>    4.7280    1.0000 </r>
       <r>    4.7280    1.0000 </r>
       <r>    7.8232    0.4375 </r>
       <r>    8.5762   -0.0000 </r>
       <r>   13.2785    0.0000 </r>
       <r>   13.2785    0.0000 </r>
       <r>   14.0845    0.0000 </r>
       <r>   14.0845    0.0000 </r>
      </set>
      <set comment="kpoint 97">
       <r>   -1.3152    1.0000 </r>
       <r>    1.1007    1.0000 </r>
       <r>    2.6859    1.0000 </r>
       <r>    5.0298    1.0000 </r>
       <r>    6.6110    1.0000 </r>
       <r>    7.9994   -0.0000 </r>
       <r>    8.8866   -0.0000 </r>
       <r>   10.2697    0.0000 </r>
       <r>   10.4064    0.0000 </r>
       <r>   11.7572    0.0000 </r>
       <r>   12.1986    0.0000 </r>
       <r>   12.6826    0.0000 </r>
      </set>
      <set comment="kpoint 98">
       <r>   -1.2428    1.0000 </r>
       <r>    1.1719    1.0000 </r>
       <r>    2.7562    1.0000 </r>
       <r>    5.0859    1.0000 </r>
       <r>    5.7077    1.0000 </r>
[...]
       <r>    1.0072    1.0000 </r>
       <r>    1.8044    1.0000 </r>
       <r>    3.3321    1.0000 </r>
       <r>    3.3765    1.0000 </r>
       <r>    4.1438    1.0000 </r>
       <r>    4.1880    1.0000 </r>
       <r>    5.6946    1.0000 </r>
       <r>    6.4703    1.0000 </r>
       <r>   15.4236    0.0000 </r>
       <r>   15.6845    0.0000 </r>
       <r>   16.1154    0.0000 </r>
       <r>   16.3687    0.0000 </r>
      </set>
      <set comment="kpoint 120">
       <r>    1.6474    1.0000 </r>
       <r>    2.4251    1.0000 </r>
       <r>    2.4405    1.0000 </r>
       <r>    3.2083    1.0000 </r>
       <r>    4.0330    1.0000 </r>
       <r>    4.7937    1.0000 </r>
       <r>    4.8088    1.0000 </r>
       <r>    5.5722    1.0000 </r>
       <r>   16.2686    0.0000 </r>
       <r>   16.8697    0.0000 </r>
       <r>   16.8998    0.0000 </r>
       <r>   17.3564    0.0000 </r>
      </set>
      <set comment="kpoint 121">
       <r>    0.5199    1.0000 </r>
       <r>    1.3197    1.0000 </r>
       <r>    1.3197    1.0000 </r>
       <r>    2.1150    1.0000 </r>
       <r>    8.3341   -0.0000 </r>
       <r>    9.0934   -0.0000 </r>
       <r>    9.0934   -0.0000 </r>
       <r>    9.7626    0.0000 </r>
       <r>    9.8528    0.0000 </r>
       <r>   10.5236    0.0000 </r>
       <r>   10.5236    0.0000 </r>
       <r>   11.2786    0.0000 </r>
      </set>
      <set comment="kpoint 122">
       <r>    0.5914    1.0000 </r>
       <r>    1.3908    1.0000 </r>
       <r>    1.3908    1.0000 </r>
       <r>    2.1858    1.0000 </r>
       <r>    7.4396    1.0000 </r>
       <r>    8.2056   -0.0000 </r>
       <r>    8.2056   -0.0000 </r>
       <r>    8.9700   -0.0000 </r>
       <r>   10.7804    0.0000 </r>
       <r>   11.5324    0.0000 </r>
       <r>   11.5324    0.0000 </r>
       <r>   12.2801    0.0000 </r>
      </set>
      <set comment="kpoint 123">
       <r>    0.8058    1.0000 </r>
       <r>    1.6040    1.0000 </r>
       <r>    1.6040    1.0000 </r>
       <r>    2.3977    1.0000 </r>
       <r>    6.1961    1.0000 </r>
       <r>    6.9684    1.0000 </r>
       <r>    6.9684    1.0000 </r>
       <r>    7.7385    1.0221 </r>
       <r>   12.3910    0.0000 </r>
       <r>   13.1284    0.0000 </r>
       <r>   13.1284    0.0000 </r>
       <r>   13.8625    0.0000 </r>
      </set>
      <set comment="kpoint 124">
       <r>    1.1624    1.0000 </r>
       <r>    1.9586    1.0000 </r>
       <r>    1.9586    1.0000 </r>
       <r>    2.7496    1.0000 </r>
       <r>    5.0350    1.0000 </r>
       <r>    5.8119    1.0000 </r>
       <r>    5.8119    1.0000 </r>
       <r>    6.5868    1.0000 </r>
       <r>   14.1545    0.0000 </r>
       <r>   14.8654    0.0000 </r>
       <r>   14.8654    0.0000 </r>
       <r>   15.5752    0.0000 </r>
      </set>
      <set comment="kpoint 125">
       <r>    1.6601    1.0000 </r>
       <r>    2.4530    1.0000 </r>
       <r>    2.4530    1.0000 </r>
       <r>    3.2353    1.0000 </r>
       <r>    4.0007    1.0000 </r>
       <r>    4.7759    1.0000 </r>
       <r>    4.7759    1.0000 </r>
       <r>    5.5545    1.0000 </r>
       <r>   16.0073    0.0000 </r>
       <r>   16.6490    0.0000 </r>
       <r>   16.6490    0.0000 </r>
       <r>   17.3097    0.0000 </r>
      </set>
      <set comment="kpoint 126">
       <r>    2.2969    1.0000 </r>
       <r>    3.0662    1.0000 </r>
       <r>    3.0811    1.0000 </r>
       <r>    3.0811    1.0000 </r>
       <r>    3.8757    1.0000 </r>
       <r>    3.8757    1.0000 </r>
       <r>    3.8906    1.0000 </r>
       <r>    4.6526    1.0000 </r>
       <r>   17.8690    0.0000 </r>
       <r>   18.1358    0.0000 </r>
       <r>   18.1384    0.0000 </r>
       <r>   18.1672    0.0000 </r>
      </set>
     </set>
    </set>
   </array>
  </eigenvalues>
  <separator name="orbital magnetization" >
   <v name="MAGDIPOLOUT">      0.00000000      0.00000000      0.00000000</v>
  </separator>
  <dos>
   <i name="efermi">      7.81953857 </i>
   <total>
    <array>
     <dimension dim="1">gridpoints</dimension>
     <dimension dim="2">spin</dimension>
     <field>energy</field>
     <field>total</field>
     <field>integrated</field>
     <set>
      <set comment="spin 1">
       <r>    -4.2412     0.0000     0.0000 </r>
       <r>    -4.1630     0.0000     0.0000 </r>
       <r>    -4.0847     0.0000     0.0000 </r>
       <r>    -4.0065     0.0000     0.0000 </r>
       <r>    -3.9282     0.0000     0.0000 </r>
       <r>    -3.8499     0.0000     0.0000 </r>
       <r>    -3.7717     0.0000     0.0000 </r>
       <r>    -3.6934     0.0000     0.0000 </r>
       <r>    -3.6152    -0.0000    -0.0000 </r>
       <r>    -3.5369    -0.0000    -0.0000 </r>
       <r>    -3.4587    -0.0000    -0.0000 </r>
       <r>    -3.3804    -0.0000    -0.0000 </r>
       <r>    -3.3022    -0.0000    -0.0000 </r>
       <r>    -3.2239    -0.0006    -0.0000 </r>
       <r>    -3.1457     0.0160     0.0012 </r>
       <r>    -3.0674     0.1121     0.0100 </r>
       <r>    -2.9892     0.2335     0.0282 </r>
       <r>    -2.9109     0.1605     0.0408 </r>
       <r>    -2.8327     0.1488     0.0524 </r>
       <r>    -2.7544     0.4907     0.0908 </r>
       <r>    -2.6762     0.4060     0.1226 </r>
       <r>    -2.5979     0.0331     0.1252 </r>
       <r>    -2.5197     0.3514     0.1527 </r>
       <r>    -2.4414     0.5843     0.1984 </r>
       <r>    -2.3632     0.4932     0.2370 </r>
       <r>    -2.2849     0.3312     0.2629 </r>
       <r>    -2.2067     0.3140     0.2875 </r>
       <r>    -2.1284     0.8237     0.3520 </r>
       <r>    -2.0502     0.3345     0.3781 </r>
       <r>    -1.9719     0.0488     0.3819 </r>
       <r>    -1.8937     0.8015     0.4447 </r>
       <r>    -1.8154     0.7765     0.5054 </r>
       <r>    -1.7372     0.5237     0.5464 </r>
       <r>    -1.6589     0.4992     0.5855 </r>
       <r>    -1.5807     0.9174     0.6573 </r>
       <r>    -1.5024     0.4565     0.6930 </r>
       <r>    -1.4242     0.0642     0.6980 </r>
       <r>    -1.3459     0.5167     0.7384 </r>
       <r>    -1.2677     0.8622     0.8059 </r>
       <r>    -1.1894     1.2365     0.9027 </r>
       <r>    -1.1111     0.3355     0.9289 </r>
       <r>    -1.0329     0.7051     0.9841 </r>
       <r>    -0.9546     1.2608     1.0827 </r>
       <r>    -0.8764     0.3659     1.1114 </r>
       <r>    -0.7981     0.1400     1.1223 </r>
       <r>    -0.7199     0.8041     1.1853 </r>
       <r>    -0.6416     1.0125     1.2645 </r>
       <r>    -0.5634     0.9532     1.3391 </r>
       <r>    -0.4851     0.6763     1.3920 </r>
       <r>    -0.4069     0.5792     1.4373 </r>
       <r>    -0.3286     1.2143     1.5323 </r>
       <r>    -0.2504     0.1199     1.5417 </r>
       <r>    -0.1721     0.8980     1.6120 </r>
       <r>    -0.0939     1.6825     1.7436 </r>
       <r>    -0.0156     0.7695     1.8039 </r>
       <r>     0.0626     0.4559     1.8395 </r>
       <r>     0.1409     1.0884     1.9247 </r>
       <r>     0.2191     1.1692     2.0162 </r>
       <r>     0.2974     0.2998     2.0397 </r>
       <r>     0.3756     0.1717     2.0531 </r>
       <r>     0.4539     0.9416     2.1268 </r>
       <r>     0.5321     1.6671     2.2572 </r>
       <r>     0.6104     0.9246     2.3296 </r>
       <r>     0.6886     0.7509     2.3883 </r>
       <r>     0.7669     1.5855     2.5124 </r>
       <r>     0.8451     1.3554     2.6185 </r>
       <r>     0.9234     0.3726     2.6476 </r>
       <r>     1.0016     1.0140     2.7270 </r>
       <r>     1.0799     0.7457     2.7853 </r>
       <r>     1.1581     1.0391     2.8666 </r>
       <r>     1.2364     0.5420     2.9091 </r>
       <r>     1.3146     1.2052     3.0034 </r>
       <r>     1.3929     1.6840     3.1351 </r>
       <r>     1.4711     0.3534     3.1628 </r>
       <r>     1.5494     0.4234     3.1959 </r>
       <r>     1.6277     1.8568     3.3412 </r>
       <r>     1.7059     1.6049     3.4668 </r>
       <r>     1.7842     0.7219     3.5233 </r>
       <r>     1.8624     1.3221     3.6267 </r>
       <r>     1.9407     1.5874     3.7510 </r>
       <r>     2.0189     0.4774     3.7883 </r>
       <r>     2.0972     0.4205     3.8212 </r>
       <r>     2.1754     1.1431     3.9107 </r>
       <r>     2.2537     1.8850     4.0582 </r>
       <r>     2.3319     1.3830     4.1664 </r>
       <r>     2.4102     0.8698     4.2345 </r>
       <r>     2.4884     1.7049     4.3679 </r>
       <r>     2.5667     0.7233     4.4245 </r>
       <r>     2.6449     0.2405     4.4433 </r>
       <r>     2.7232     1.2944     4.5446 </r>
       <r>     2.8014     1.5180     4.6634 </r>
       <r>     2.8797     1.3059     4.7656 </r>
       <r>     2.9579     1.1884     4.8585 </r>
       <r>     3.0362     1.2040     4.9528 </r>
       <r>     3.1144     1.7945     5.0932 </r>
       <r>     3.1927     0.4418     5.1277 </r>
       <r>     3.2709     1.2515     5.2257 </r>
       <r>     3.3492     2.8036     5.4451 </r>
       <r>     3.4274     1.7628     5.5830 </r>
       <r>     3.5057     0.5775     5.6282 </r>
       <r>     3.5839     0.7235     5.6848 </r>
       <r>     3.6622     1.4506     5.7983 </r>
       <r>     3.7404     0.6549     5.8496 </r>
       <r>     3.8187     0.4333     5.8835 </r>
       <r>     3.8969     1.3026     5.9854 </r>
       <r>     3.9752     1.8500     6.1302 </r>
       <r>     4.0534     1.6090     6.2561 </r>
       <r>     4.1317     1.5117     6.3744 </r>
       <r>     4.2099     2.5420     6.5733 </r>
       <r>     4.2882     0.6699     6.6257 </r>
       <r>     4.3665     0.9870     6.7029 </r>
       <r>     4.4447     1.7091     6.8367 </r>
       <r>     4.5230     1.7382     6.9727 </r>
       <r>     4.6012     1.2547     7.0709 </r>
       <r>     4.6795     1.2213     7.1665 </r>
       <r>     4.7577     1.6271     7.2938 </r>
       <r>     4.8360     1.9150     7.4436 </r>
       <r>     4.9142     0.1812     7.4578 </r>
       <r>     4.9925     1.1910     7.5510 </r>
       <r>     5.0707     1.8915     7.6990 </r>
       <r>     5.1490     1.7035     7.8323 </r>
       <r>     5.2272     2.1178     7.9980 </r>
       <r>     5.3055     2.4135     8.1869 </r>
       <r>     5.3837     1.4317     8.2989 </r>
       <r>     5.4620     0.6996     8.3537 </r>
       <r>     5.5402     0.5884     8.3997 </r>
       <r>     5.6185     1.9858     8.5551 </r>
       <r>     5.6967     1.7380     8.6911 </r>
       <r>     5.7750     1.2152     8.7862 </r>
       <r>     5.8532     2.0147     8.9439 </r>
       <r>     5.9315     1.3976     9.0532 </r>
       <r>     6.0097     0.7227     9.1098 </r>
       <r>     6.0880     0.9590     9.1848 </r>
       <r>     6.1662     1.8994     9.3334 </r>
       <r>     6.2445     1.4699     9.4485 </r>
       <r>     6.3227     1.7563     9.5859 </r>
       <r>     6.4010     1.3449     9.6911 </r>
       <r>     6.4792     2.2386     9.8663 </r>
       <r>     6.5575     1.1893     9.9594 </r>
       <r>     6.6357     1.1481    10.0492 </r>
       <r>     6.7140     1.4598    10.1634 </r>
       <r>     6.7922     2.2906    10.3427 </r>
       <r>     6.8705     1.6269    10.4700 </r>
       <r>     6.9488     1.1858    10.5628 </r>
       <r>     7.0270     1.3068    10.6650 </r>
       <r>     7.1053     1.0328    10.7459 </r>
       <r>     7.1835     0.6960    10.8003 </r>
       <r>     7.2618     1.9785    10.9551 </r>
       <r>     7.3400     1.3425    11.0602 </r>
       <r>     7.4183     0.9351    11.1334 </r>
       <r>     7.4965     2.1617    11.3025 </r>
       <r>     7.5748     2.8408    11.5248 </r>
       <r>     7.6530     1.3350    11.6293 </r>
       <r>     7.7313     1.8259    11.7722 </r>
       <r>     7.8095     2.5529    11.9719 </r>
       <r>     7.8878     1.8127    12.1138 </r>
       <r>     7.9660     1.4451    12.2269 </r>
       <r>     8.0443     1.0224    12.3069 </r>
       <r>     8.1225     1.5940    12.4316 </r>
       <r>     8.2008     0.6547    12.4828 </r>
       <r>     8.2790     1.1954    12.5764 </r>
       <r>     8.3573     1.4681    12.6913 </r>
       <r>     8.4355     1.6804    12.8228 </r>
       <r>     8.5138     2.2562    12.9993 </r>
       <r>     8.5920     2.5040    13.1952 </r>
       <r>     8.6703     2.5111    13.3917 </r>
       <r>     8.7485     2.3115    13.5726 </r>
       <r>     8.8268     0.6824    13.6260 </r>
       <r>     8.9050     0.8066    13.6891 </r>
       <r>     8.9833     1.4375    13.8016 </r>
       <r>     9.0615     2.0786    13.9643 </r>
       <r>     9.1398     1.3027    14.0662 </r>
       <r>     9.2180     2.4354    14.2568 </r>
       <r>     9.2963     1.6321    14.3845 </r>
       <r>     9.3745     0.7356    14.4421 </r>
       <r>     9.4528     1.9766    14.5967 </r>
       <r>     9.5310     2.4287    14.7868 </r>
       <r>     9.6093     1.7591    14.9244 </r>
       <r>     9.6876     1.8703    15.0708 </r>
       <r>     9.7658     2.1627    15.2400 </r>
       <r>     9.8441     1.2056    15.3344 </r>
       <r>     9.9223     2.5771    15.5360 </r>
       <r>    10.0006     1.7209    15.6707 </r>
       <r>    10.0788     2.4025    15.8587 </r>
       <r>    10.1571     1.8919    16.0067 </r>
       <r>    10.2353     2.3563    16.1911 </r>
       <r>    10.3136     1.3092    16.2936 </r>
       <r>    10.3918     0.9230    16.3658 </r>
       <r>    10.4701     1.2105    16.4605 </r>
       <r>    10.5483     1.3365    16.5651 </r>
       <r>    10.6266     1.9186    16.7152 </r>
       <r>    10.7048     1.3330    16.8196 </r>
       <r>    10.7831     1.5086    16.9376 </r>
       <r>    10.8613     2.1766    17.1079 </r>
       <r>    10.9396     3.2573    17.3628 </r>
       <r>    11.0178     2.1682    17.5325 </r>
       <r>    11.0961     2.8308    17.7540 </r>
       <r>    11.1743     2.4502    17.9457 </r>
       <r>    11.2526     1.2685    18.0450 </r>
       <r>    11.3308     1.6796    18.1764 </r>
       <r>    11.4091     1.9127    18.3261 </r>
       <r>    11.4873     1.0536    18.4085 </r>
       <r>    11.5656     1.5529    18.5300 </r>
       <r>    11.6438     1.6456    18.6588 </r>
       <r>    11.7221     1.9114    18.8084 </r>
       <r>    11.8003     2.6085    19.0125 </r>
       <r>    11.8786     2.5355    19.2109 </r>
       <r>    11.9568     2.4949    19.4061 </r>
       <r>    12.0351     2.9999    19.6409 </r>
       <r>    12.1133     1.9307    19.7920 </r>
       <r>    12.1916     1.6169    19.9185 </r>
       <r>    12.2698     1.5225    20.0376 </r>
       <r>    12.3481     1.7645    20.1757 </r>
       <r>    12.4264     1.5771    20.2991 </r>
       <r>    12.5046     1.3087    20.4015 </r>
       <r>    12.5829     2.6721    20.6106 </r>
       <r>    12.6611     1.6436    20.7392 </r>
       <r>    12.7394     1.8264    20.8821 </r>
       <r>    12.8176     2.3125    21.0631 </r>
       <r>    12.8959     2.5087    21.2594 </r>
       <r>    12.9741     1.6516    21.3886 </r>
       <r>    13.0524     2.3171    21.5700 </r>
       <r>    13.1306     1.7697    21.7084 </r>
       <r>    13.2089     1.7172    21.8428 </r>
       <r>    13.2871     1.2757    21.9426 </r>
       <r>    13.3654     2.5666    22.1435 </r>
       <r>    13.4436     0.6945    22.1978 </r>
       <r>    13.5219     1.3892    22.3065 </r>
       <r>    13.6001     1.7343    22.4422 </r>
       <r>    13.6784     0.2093    22.4586 </r>
       <r>    13.7566     0.4610    22.4947 </r>
       <r>    13.8349     1.0541    22.5772 </r>
       <r>    13.9131     1.4445    22.6902 </r>
       <r>    13.9914     0.6682    22.7425 </r>
       <r>    14.0696     0.6733    22.7952 </r>
       <r>    14.1479     1.1799    22.8875 </r>
       <r>    14.2261     0.8983    22.9578 </r>
       <r>    14.3044     0.7316    23.0151 </r>
       <r>    14.3826     0.5049    23.0546 </r>
       <r>    14.4609     0.7306    23.1118 </r>
       <r>    14.5391     0.3770    23.1413 </r>
       <r>    14.6174     0.1565    23.1535 </r>
       <r>    14.6956     1.1301    23.2419 </r>
       <r>    14.7739     0.2913    23.2647 </r>
       <r>    14.8521     0.3027    23.2884 </r>
       <r>    14.9304     0.6492    23.3392 </r>
       <r>    15.0086     0.0675    23.3445 </r>
       <r>    15.0869     0.7951    23.4067 </r>
       <r>    15.1652     0.8188    23.4708 </r>
       <r>    15.2434     0.0059    23.4713 </r>
       <r>    15.3217     0.8501    23.5378 </r>
       <r>    15.3999     0.1179    23.5470 </r>
       <r>    15.4782     0.2671    23.5679 </r>
       <r>    15.5564     0.0112    23.5688 </r>
       <r>    15.6347     0.3664    23.5974 </r>
       <r>    15.7129     0.9581    23.6724 </r>
       <r>    15.7912     0.1932    23.6875 </r>
       <r>    15.8694     0.3738    23.7168 </r>
       <r>    15.9477     0.0850    23.7234 </r>
       <r>    16.0259     0.1182    23.7327 </r>
       <r>    16.1042     0.1346    23.7432 </r>
       <r>    16.1824     0.2140    23.7600 </r>
       <r>    16.2607     0.0957    23.7674 </r>
       <r>    16.3389     0.4753    23.8046 </r>
       <r>    16.4172     0.4258    23.8380 </r>
       <r>    16.4954     0.0781    23.8441 </r>
       <r>    16.5737    -0.0129    23.8431 </r>
       <r>    16.6519     0.1773    23.8569 </r>
       <r>    16.7302     0.1450    23.8683 </r>
       <r>    16.8084    -0.0217    23.8666 </r>
       <r>    16.8867     0.3394    23.8932 </r>
       <r>    16.9649     0.3040    23.9169 </r>
       <r>    17.0432    -0.0139    23.9159 </r>
       <r>    17.1214    -0.0001    23.9159 </r>
       <r>    17.1997    -0.0006    23.9158 </r>
       <r>    17.2779     0.0030    23.9160 </r>
       <r>    17.3562     0.3061    23.9400 </r>
       <r>    17.4344     0.1602    23.9525 </r>
       <r>    17.5127    -0.0078    23.9519 </r>
       <r>    17.5909    -0.0000    23.9519 </r>
       <r>    17.6692    -0.0000    23.9519 </r>
       <r>    17.7474    -0.0002    23.9519 </r>
       <r>    17.8257    -0.0005    23.9519 </r>
       <r>    17.9040     0.1482    23.9634 </r>
       <r>    17.9822     0.0067    23.9640 </r>
       <r>    18.0605    -0.0093    23.9632 </r>
       <r>    18.1387     0.1852    23.9777 </r>
       <r>    18.2170     0.2954    24.0009 </r>
       <r>    18.2952    -0.0108    24.0000 </r>
       <r>    18.3735    -0.0001    24.0000 </r>
       <r>    18.4517    -0.0000    24.0000 </r>
       <r>    18.5300    -0.0000    24.0000 </r>
       <r>    18.6082     0.0000    24.0000 </r>
       <r>    18.6865     0.0000    24.0000 </r>
       <r>    18.7647     0.0000    24.0000 </r>
       <r>    18.8430     0.0000    24.0000 </r>
       <r>    18.9212     0.0000    24.0000 </r>
       <r>    18.9995     0.0000    24.0000 </r>
       <r>    19.0777     0.0000    24.0000 </r>
       <r>    19.1560     0.0000    24.0000 </r>
       <r>    19.2342     0.0000    24.0000 </r>
      </set>
     </set>
    </array>
   </total>
  </dos>
 </calculation>
 <structure name="finalpos" >
  <crystal>
   <varray name="basis" >
    <v>       4.08359800       0.00000000       0.00000000 </v>
    <v>       0.00000000       4.04336400       0.00000000 </v>
    <v>       0.00000000       0.00000000       4.04336400 </v>
   </varray>
   <i name="volume">     66.76189610 </i>
   <varray name="rec_basis" >
    <v>       0.24488209       0.00000000       0.00000000 </v>
    <v>       0.00000000       0.24731882       0.00000000 </v>
    <v>       0.00000000       0.00000000       0.24731882 </v>
   </varray>
  </crystal>
  <varray name="positions" >
   <v>       0.00000000       0.00000000       0.00000000 </v>
   <v>       0.00000000       0.50000000       0.50000000 </v>
   <v>       0.50000000       0.00000000       0.50000000 </v>
   <v>       0.50000000       0.50000000       0.00000000 </v>
  </varray>
 </structure>
</modeling>
