<?xml version="1.0" encoding="ISO-8859-1"?>
<modeling>
 <generator>
  <i name="program" type="string">vasp </i>
  <i name="version" type="string">5.4.4.18Apr17-6-g9f103f2a35  </i>
  <i name="subversion" type="string">(build Jun 11 2017 21:30:58) complex            parallel </i>
  <i name="platform" type="string">LinuxIFC </i>
  <i name="date" type="string">2022 07 07 </i>
  <i name="time" type="string">18:38:29 </i>
 </generator>
 <incar>
  <i type="string" name="PREC">accurate</i>
  <i type="string" name="ALGO"> Normal</i>
  <i type="logical" name="ADDGRID"> T  </i>
  <i type="int" name="NELM">   100</i>
  <i type="int" name="NELMIN">     4</i>
  <i type="int" name="IBRION">    -1</i>
  <i name="EDIFF">      0.00005000</i>
  <i name="ENCUT">    520.00000000</i>
  <i type="logical" name="LREAL"> F  </i>
  <i type="int" name="ISMEAR">     1</i>
  <i name="SIGMA">      0.05000000</i>
  <i type="logical" name="LWAVE"> F  </i>
  <i type="logical" name="LCHARG"> F  </i>
  <i type="logical" name="LASPH"> T  </i>
  <v type="int" name="KPOINT_BSE">    -1     0     0     0</v>
  <i type="int" name="NELM">   100</i>
  <i type="logical" name="LASPH"> T  </i>
 </incar>
 <structure name="primitive_cell" >
  <crystal>
   <varray name="basis" >
    <v>       0.00000000       2.00136300       2.02168200 </v>
    <v>       0.00000000       2.00136300      -2.02168200 </v>
    <v>      -2.02168200      -2.00136300       0.00000000 </v>
   </varray>
   <i name="volume">     16.35993414 </i>
   <varray name="rec_basis" >
    <v>      -0.24731882       0.24982974       0.24731882 </v>
    <v>      -0.24731882       0.24982974      -0.24731882 </v>
    <v>      -0.49463763       0.00000000       0.00000000 </v>
   </varray>
  </crystal>
  <varray name="positions" >
   <v>       0.00000000       0.00000000       0.00000000 </v>
  </varray>
 </structure>
 <varray name="primitive_index" >
  <v type="int" >        1 </v>
 </varray>
 <kpoints>
  <generation param="Gamma">
   <v type="int" name="divisions">      11       11       11 </v>
   <v name="usershift">      0.00000000       0.00000000       0.00000000 </v>
   <v name="genvec1">      0.09090909       0.00000000       0.00000000 </v>
   <v name="genvec2">      0.00000000       0.09090909       0.00000000 </v>
   <v name="genvec3">      0.00000000       0.00000000       0.09090909 </v>
   <v name="shift">      0.00000000       0.00000000       0.00000000 </v>
  </generation>
  <varray name="kpointlist" >
   <v>       0.00000000       0.00000000       0.00000000 </v>
   <v>       0.09090909       0.00000000       0.00000000 </v>
   <v>       0.18181818       0.00000000       0.00000000 </v>
   <v>       0.27272727       0.00000000       0.00000000 </v>
   <v>       0.36363636       0.00000000       0.00000000 </v>
   <v>       0.45454545       0.00000000       0.00000000 </v>
   <v>       0.00000000       0.09090909       0.00000000 </v>
   <v>       0.09090909       0.09090909       0.00000000 </v>
   <v>       0.18181818       0.09090909       0.00000000 </v>
   <v>       0.27272727       0.09090909       0.00000000 </v>
   <v>       0.36363636       0.09090909       0.00000000 </v>
   <v>       0.45454545       0.09090909       0.00000000 </v>
   <v>       0.00000000       0.18181818       0.00000000 </v>
   <v>       0.09090909       0.18181818       0.00000000 </v>
   <v>       0.18181818       0.18181818       0.00000000 </v>
   <v>       0.27272727       0.18181818       0.00000000 </v>
   <v>       0.36363636       0.18181818       0.00000000 </v>
   <v>       0.45454545       0.18181818       0.00000000 </v>
   <v>       0.00000000       0.27272727       0.00000000 </v>
   <v>       0.09090909       0.27272727       0.00000000 </v>
   <v>       0.18181818       0.27272727       0.00000000 </v>
   <v>       0.27272727       0.27272727       0.00000000 </v>
   <v>       0.36363636       0.27272727       0.00000000 </v>
   <v>       0.45454545       0.27272727       0.00000000 </v>
   <v>       0.00000000       0.36363636       0.00000000 </v>
   <v>       0.09090909       0.36363636       0.00000000 </v>
   <v>       0.18181818       0.36363636       0.00000000 </v>
   <v>       0.27272727       0.36363636       0.00000000 </v>
   <v>       0.36363636       0.36363636       0.00000000 </v>
   <v>       0.45454545       0.36363636       0.00000000 </v>
   <v>       0.00000000       0.45454545       0.00000000 </v>
   <v>       0.09090909       0.45454545       0.00000000 </v>
   <v>       0.18181818       0.45454545       0.00000000 </v>
   <v>       0.27272727       0.45454545       0.00000000 </v>
   <v>       0.36363636       0.45454545       0.00000000 </v>
   <v>       0.45454545       0.45454545       0.00000000 </v>
   <v>       0.09090909       0.00000000       0.09090909 </v>
   <v>       0.18181818       0.00000000       0.09090909 </v>
   <v>       0.27272727       0.00000000       0.09090909 </v>
   <v>       0.36363636       0.00000000       0.09090909 </v>
   <v>       0.45454545       0.00000000       0.09090909 </v>
   <v>       0.09090909       0.09090909       0.09090909 </v>
   <v>       0.18181818       0.09090909       0.09090909 </v>
   <v>       0.27272727       0.09090909       0.09090909 </v>
   <v>       0.36363636       0.09090909       0.09090909 </v>
   <v>       0.45454545       0.09090909       0.09090909 </v>
   <v>       0.09090909       0.18181818       0.09090909 </v>
   <v>       0.18181818       0.18181818       0.09090909 </v>
   <v>       0.27272727       0.18181818       0.09090909 </v>
   <v>       0.36363636       0.18181818       0.09090909 </v>
   <v>       0.45454545       0.18181818       0.09090909 </v>
   <v>       0.09090909       0.27272727       0.09090909 </v>
   <v>       0.18181818       0.27272727       0.09090909 </v>
   <v>       0.27272727       0.27272727       0.09090909 </v>
   <v>       0.36363636       0.27272727       0.09090909 </v>
   <v>       0.45454545       0.27272727       0.09090909 </v>
   <v>       0.09090909       0.36363636       0.09090909 </v>
   <v>       0.18181818       0.36363636       0.09090909 </v>
   <v>       0.27272727       0.36363636       0.09090909 </v>
   <v>       0.36363636       0.36363636       0.09090909 </v>
   <v>       0.45454545       0.36363636       0.09090909 </v>
   <v>       0.09090909       0.45454545       0.09090909 </v>
   <v>       0.18181818       0.45454545       0.09090909 </v>
   <v>       0.27272727       0.45454545       0.09090909 </v>
   <v>       0.36363636       0.45454545       0.09090909 </v>
   <v>       0.45454545       0.45454545       0.09090909 </v>
   <v>       0.18181818       0.00000000       0.18181818 </v>
   <v>       0.27272727       0.00000000       0.18181818 </v>
   <v>       0.36363636       0.00000000       0.18181818 </v>
   <v>       0.45454545       0.00000000       0.18181818 </v>
   <v>       0.18181818       0.09090909       0.18181818 </v>
   <v>       0.27272727       0.09090909       0.18181818 </v>
   <v>       0.36363636       0.09090909       0.18181818 </v>
   <v>       0.45454545       0.09090909       0.18181818 </v>
   <v>       0.18181818       0.18181818       0.18181818 </v>
   <v>       0.27272727       0.18181818       0.18181818 </v>
   <v>       0.36363636       0.18181818       0.18181818 </v>
   <v>       0.45454545       0.18181818       0.18181818 </v>
   <v>       0.18181818       0.27272727       0.18181818 </v>
   <v>       0.27272727       0.27272727       0.18181818 </v>
   <v>       0.36363636       0.27272727       0.18181818 </v>
   <v>       0.45454545       0.27272727       0.18181818 </v>
   <v>       0.18181818       0.36363636       0.18181818 </v>
   <v>       0.27272727       0.36363636       0.18181818 </v>
   <v>       0.36363636       0.36363636       0.18181818 </v>
   <v>       0.45454545       0.36363636       0.18181818 </v>
   <v>       0.18181818       0.45454545       0.18181818 </v>
   <v>       0.27272727       0.45454545       0.18181818 </v>
   <v>       0.36363636       0.45454545       0.18181818 </v>
   <v>       0.45454545       0.45454545       0.18181818 </v>
   <v>       0.27272727       0.00000000       0.27272727 </v>
   <v>       0.36363636       0.00000000       0.27272727 </v>
   <v>       0.45454545       0.00000000       0.27272727 </v>
   <v>       0.27272727       0.09090909       0.27272727 </v>
   <v>       0.36363636       0.09090909       0.27272727 </v>
   <v>       0.45454545       0.09090909       0.27272727 </v>
   <v>       0.27272727       0.18181818       0.27272727 </v>
   <v>       0.36363636       0.18181818       0.27272727 </v>
   <v>       0.45454545       0.18181818       0.27272727 </v>
   <v>       0.27272727       0.27272727       0.27272727 </v>
   <v>       0.36363636       0.27272727       0.27272727 </v>
   <v>       0.45454545       0.27272727       0.27272727 </v>
   <v>       0.27272727       0.36363636       0.27272727 </v>
   <v>       0.36363636       0.36363636       0.27272727 </v>
   <v>       0.45454545       0.36363636       0.27272727 </v>
   <v>       0.27272727       0.45454545       0.27272727 </v>
   <v>       0.36363636       0.45454545       0.27272727 </v>
   <v>       0.45454545       0.45454545       0.27272727 </v>
   <v>       0.36363636       0.00000000       0.36363636 </v>
   <v>       0.45454545       0.00000000       0.36363636 </v>
   <v>       0.36363636       0.09090909       0.36363636 </v>
   <v>       0.45454545       0.09090909       0.36363636 </v>
   <v>       0.36363636       0.18181818       0.36363636 </v>
   <v>       0.45454545       0.18181818       0.36363636 </v>
   <v>       0.36363636       0.27272727       0.36363636 </v>
   <v>       0.45454545       0.27272727       0.36363636 </v>
   <v>       0.36363636       0.36363636       0.36363636 </v>
   <v>       0.45454545       0.36363636       0.36363636 </v>
   <v>       0.36363636       0.45454545       0.36363636 </v>
   <v>       0.45454545       0.45454545       0.36363636 </v>
   <v>       0.45454545       0.00000000       0.45454545 </v>
   <v>       0.45454545       0.09090909       0.45454545 </v>
   <v>       0.45454545       0.18181818       0.45454545 </v>
   <v>       0.45454545       0.27272727       0.45454545 </v>
   <v>       0.45454545       0.36363636       0.45454545 </v>
   <v>       0.45454545       0.45454545       0.45454545 </v>
  </varray>
  <varray name="weights" >
   <v>       0.00075131 </v>
   <v>       0.00300526 </v>
   <v>       0.00300526 </v>
   <v>       0.00300526 </v>
   <v>       0.00300526 </v>
   <v>       0.00300526 </v>
   <v>       0.00150263 </v>
   <v>       0.00601052 </v>
   <v>       0.00601052 </v>
   <v>       0.00601052 </v>
   <v>       0.00601052 </v>
   <v>       0.00601052 </v>
   <v>       0.00150263 </v>
   <v>       0.00601052 </v>
   <v>       0.00601052 </v>
   <v>       0.00601052 </v>
   <v>       0.00601052 </v>
   <v>       0.00601052 </v>
   <v>       0.00150263 </v>
   <v>       0.00601052 </v>
   <v>       0.00601052 </v>
   <v>       0.00601052 </v>
   <v>       0.00601052 </v>
   <v>       0.00601052 </v>
   <v>       0.00150263 </v>
   <v>       0.00601052 </v>
   <v>       0.00601052 </v>
   <v>       0.00601052 </v>
   <v>       0.00601052 </v>
   <v>       0.00601052 </v>
   <v>       0.00150263 </v>
   <v>       0.00601052 </v>
   <v>       0.00601052 </v>
   <v>       0.00601052 </v>
   <v>       0.00601052 </v>
   <v>       0.00601052 </v>
   <v>       0.00300526 </v>
   <v>       0.00601052 </v>
   <v>       0.00601052 </v>
   <v>       0.00601052 </v>
   <v>       0.00601052 </v>
   <v>       0.00601052 </v>
   <v>       0.01202104 </v>
   <v>       0.01202104 </v>
   <v>       0.01202104 </v>
   <v>       0.01202104 </v>
   <v>       0.00601052 </v>
   <v>       0.01202104 </v>
   <v>       0.01202104 </v>
   <v>       0.01202104 </v>
   <v>       0.01202104 </v>
   <v>       0.00601052 </v>
   <v>       0.01202104 </v>
   <v>       0.01202104 </v>
   <v>       0.01202104 </v>
   <v>       0.01202104 </v>
   <v>       0.00601052 </v>
   <v>       0.01202104 </v>
   <v>       0.01202104 </v>
   <v>       0.01202104 </v>
   <v>       0.01202104 </v>
   <v>       0.00601052 </v>
   <v>       0.01202104 </v>
   <v>       0.01202104 </v>
   <v>       0.01202104 </v>
   <v>       0.01202104 </v>
   <v>       0.00300526 </v>
   <v>       0.00601052 </v>
   <v>       0.00601052 </v>
   <v>       0.00601052 </v>
   <v>       0.00601052 </v>
   <v>       0.01202104 </v>
   <v>       0.01202104 </v>
   <v>       0.01202104 </v>
   <v>       0.00601052 </v>
   <v>       0.01202104 </v>
   <v>       0.01202104 </v>
   <v>       0.01202104 </v>
   <v>       0.00601052 </v>
   <v>       0.01202104 </v>
   <v>       0.01202104 </v>
   <v>       0.01202104 </v>
   <v>       0.00601052 </v>
   <v>       0.01202104 </v>
   <v>       0.01202104 </v>
   <v>       0.01202104 </v>
   <v>       0.00601052 </v>
   <v>       0.01202104 </v>
   <v>       0.01202104 </v>
   <v>       0.01202104 </v>
   <v>       0.00300526 </v>
   <v>       0.00601052 </v>
   <v>       0.00601052 </v>
   <v>       0.00601052 </v>
   <v>       0.01202104 </v>
   <v>       0.01202104 </v>
   <v>       0.00601052 </v>
   <v>       0.01202104 </v>
   <v>       0.01202104 </v>
   <v>       0.00601052 </v>
   <v>       0.01202104 </v>
   <v>       0.01202104 </v>
   <v>       0.00601052 </v>
   <v>       0.01202104 </v>
   <v>       0.01202104 </v>
   <v>       0.00601052 </v>
   <v>       0.01202104 </v>
   <v>       0.01202104 </v>
   <v>       0.00300526 </v>
   <v>       0.00601052 </v>
   <v>       0.00601052 </v>
   <v>       0.01202104 </v>
   <v>       0.00601052 </v>
   <v>       0.01202104 </v>
   <v>       0.00601052 </v>
   <v>       0.01202104 </v>
   <v>       0.00601052 </v>
   <v>       0.01202104 </v>
   <v>       0.00601052 </v>
   <v>       0.01202104 </v>
   <v>       0.00300526 </v>
   <v>       0.00601052 </v>
   <v>       0.00601052 </v>
   <v>       0.00601052 </v>
   <v>       0.00601052 </v>
   <v>       0.00601052 </v>
  </varray>
 </kpoints>
 <parameters>
  <separator name="general" >
   <i type="string" name="SYSTEM">unknown system</i>
   <i type="logical" name="LCOMPAT"> F  </i>
  </separator>
  <separator name="electronic" >
   <i type="string" name="PREC">accura</i>
   <i name="ENMAX">    520.00000000</i>
   <i name="ENAUG">    291.05200000</i>
   <i name="EDIFF">      0.00005000</i>
   <i type="int" name="IALGO">    38</i>
   <i type="int" name="IWAVPR">    10</i>
   <i type="int" name="NBANDS">    12</i>
   <i name="NELECT">     12.00000000</i>
   <i type="int" name="TURBO">     0</i>
   <i type="int" name="IRESTART">     0</i>
   <i type="int" name="NREBOOT">     0</i>
   <i type="int" name="NMIN">     0</i>
   <i name="EREF">      0.00000000</i>
   <separator name="electronic smearing" >
    <i type="int" name="ISMEAR">     1</i>
    <i name="SIGMA">      0.05000000</i>
    <i name="KSPACING">      0.50000000</i>
    <i type="logical" name="KGAMMA"> T  </i>
   </separator>
   <separator name="electronic projectors" >
    <i type="logical" name="LREAL"> F  </i>
    <v name="ROPT">      0.00000000</v>
    <i type="int" name="LMAXPAW">  -100</i>
    <i type="int" name="LMAXMIX">     2</i>
    <i type="logical" name="NLSPLINE"> F  </i>
   </separator>
   <separator name="electronic startup" >
    <i type="int" name="ISTART">     0</i>
    <i type="int" name="ICHARG">     2</i>
    <i type="int" name="INIWAV">     1</i>
   </separator>
   <separator name="electronic spin" >
    <i type="int" name="ISPIN">     1</i>
    <i type="logical" name="LNONCOLLINEAR"> F  </i>
    <v name="MAGMOM">      1.00000000      1.00000000      1.00000000      1.00000000</v>
    <i name="NUPDOWN">     -1.00000000</i>
    <i type="logical" name="LSORBIT"> F  </i>
    <v name="SAXIS">      0.00000000      0.00000000      1.00000000</v>
    <i type="logical" name="LSPIRAL"> F  </i>
    <v name="QSPIRAL">      0.00000000      0.00000000      0.00000000</v>
    <i type="logical" name="LZEROZ"> F  </i>
   </separator>
   <separator name="electronic exchange-correlation" >
    <i type="logical" name="LASPH"> T  </i>
    <i type="logical" name="LMETAGGA"> F  </i>
   </separator>
   <separator name="electronic convergence" >
    <i type="int" name="NELM">   100</i>
    <i type="int" name="NELMDL">    -5</i>
    <i type="int" name="NELMIN">     4</i>
    <i name="ENINI">    520.00000000</i>
    <separator name="electronic convergence detail" >
     <i type="logical" name="LDIAG"> T  </i>
     <i type="logical" name="LSUBROT"> F  </i>
     <i name="WEIMIN">      0.00000000</i>
     <i name="EBREAK">      0.00000104</i>
     <i name="DEPER">      0.30000000</i>
     <i type="int" name="NRMM">     4</i>
     <i name="TIME">      0.40000000</i>
    </separator>
   </separator>
   <separator name="electronic mixer" >
    <i name="AMIX">      0.40000000</i>
    <i name="BMIX">      1.00000000</i>
    <i name="AMIN">      0.10000000</i>
    <i name="AMIX_MAG">      1.60000000</i>
    <i name="BMIX_MAG">      1.00000000</i>
    <separator name="electronic mixer details" >
     <i type="int" name="IMIX">     4</i>
     <i type="logical" name="MIXFIRST"> F  </i>
     <i type="int" name="MAXMIX">   -45</i>
     <i name="WC">    100.00000000</i>
     <i type="int" name="INIMIX">     1</i>
     <i type="int" name="MIXPRE">     1</i>
     <i type="int" name="MREMOVE">     5</i>
    </separator>
   </separator>
   <separator name="electronic dipolcorrection" >
    <i type="logical" name="LDIPOL"> F  </i>
    <i type="logical" name="LMONO"> F  </i>
    <i type="int" name="IDIPOL">     0</i>
    <i name="EPSILON">      1.00000000</i>
    <v name="DIPOL">   -100.00000000   -100.00000000   -100.00000000</v>
    <i name="EFIELD">      0.00000000</i>
   </separator>
  </separator>
  <separator name="grids" >
   <i type="int" name="NGX">    30</i>
   <i type="int" name="NGY">    30</i>
   <i type="int" name="NGZ">    30</i>
   <i type="int" name="NGXF">    60</i>
   <i type="int" name="NGYF">    60</i>
   <i type="int" name="NGZF">    60</i>
   <i type="logical" name="ADDGRID"> T  </i>
  </separator>
  <separator name="ionic" >
   <i type="int" name="NSW">     0</i>
   <i type="int" name="IBRION">    -1</i>
   <i type="int" name="MDALGO">     0</i>
   <i type="int" name="ISIF">     2</i>
   <i name="PSTRESS">      0.00000000</i>
   <i name="EDIFFG">      0.00050000</i>
   <i type="int" name="NFREE">     0</i>
   <i name="POTIM">      0.50000000</i>
   <i name="SMASS">     -3.00000000</i>
   <i name="SCALEE">      1.00000000</i>
  </separator>
  <separator name="ionic md" >
   <i name="TEBEG">      0.00010000</i>
   <i name="TEEND">      0.00010000</i>
   <i type="int" name="NBLOCK">     1</i>
   <i type="int" name="KBLOCK">     1</i>
   <i type="int" name="NPACO">   256</i>
   <i name="APACO">     16.00000000</i>
  </separator>
  <separator name="symmetry" >
   <i type="int" name="ISYM">     2</i>
   <i name="SYMPREC">      0.00001000</i>
  </separator>
  <separator name="dos" >
   <i type="int" name="LORBIT">     0</i>
   <v name="RWIGS">     -1.00000000</v>
   <i type="int" name="NEDOS">   301</i>
   <i name="EMIN">     10.00000000</i>
   <i name="EMAX">    -10.00000000</i>
   <i name="EFERMI">      0.00000000</i>
  </separator>
  <separator name="writing" >
   <i type="int" name="NWRITE">     2</i>
   <i type="logical" name="LWAVE"> F  </i>
   <i type="logical" name="LDOWNSAMPLE"> F  </i>
   <i type="logical" name="LCHARG"> F  </i>
   <i type="logical" name="LPARD"> F  </i>
   <i type="logical" name="LVTOT"> F  </i>
   <i type="logical" name="LVHAR"> F  </i>
   <i type="logical" name="LELF"> F  </i>
   <i type="logical" name="LOPTICS"> F  </i>
   <v name="STM">      0.00000000      0.00000000      0.00000000      0.00000000      0.00000000      0.00000000      0.00000000</v>
  </separator>
  <separator name="performance" >
   <i type="int" name="NPAR">     4</i>
   <i type="int" name="NSIM">     4</i>
   <i type="int" name="NBLK">    -1</i>
   <i type="logical" name="LPLANE"> T  </i>
   <i type="logical" name="LSCALAPACK"> T  </i>
   <i type="logical" name="LSCAAWARE"> F  </i>
   <i type="logical" name="LSCALU"> F  </i>
   <i type="logical" name="LASYNC"> F  </i>
   <i type="logical" name="LORBITALREAL"> F  </i>
  </separator>
  <separator name="miscellaneous" >
   <i type="int" name="IDIOT">     3</i>
   <i type="int" name="ISPECIAL">     0</i>
   <i type="logical" name="LMUSIC"> F  </i>
   <v name="POMASS">     26.98100000</v>
   <v name="DARWINR">      0.00000000</v>
   <v name="DARWINV">      1.00000000</v>
   <i type="logical" name="LCORR"> T  </i>
  </separator>
  <i type="logical" name="GGA_COMPAT"> T  </i>
  <i type="logical" name="LBERRY"> F  </i>
  <i type="int" name="ICORELEVEL">     0</i>
  <i type="logical" name="LDAU"> F  </i>
  <i type="int" name="I_CONSTRAINED_M">     0</i>
  <separator name="electronic exchange-correlation" >
   <i type="string" name="GGA">--</i>
   <i type="int" name="VOSKOWN">     0</i>
   <i type="logical" name="LHFCALC"> F  </i>
   <i type="string" name="PRECFOCK"></i>
   <i type="logical" name="LSYMGRAD"> F  </i>
   <i type="logical" name="LHFONE"> F  </i>
   <i type="logical" name="LRHFCALC"> F  </i>
   <i type="logical" name="LTHOMAS"> F  </i>
   <i type="logical" name="LMODELHF"> F  </i>
   <i name="ENCUT4O">     -1.00000000</i>
   <i type="int" name="EXXOEP">     0</i>
   <i type="int" name="FOURORBIT">     0</i>
   <i name="AEXX">      0.00000000</i>
   <i name="HFALPHA">      0.00000000</i>
   <i name="MCALPHA">      0.00000000</i>
   <i name="ALDAX">      1.00000000</i>
   <i name="AGGAX">      1.00000000</i>
   <i name="ALDAC">      1.00000000</i>
   <i name="AGGAC">      1.00000000</i>
   <i type="int" name="NKREDX">     1</i>
   <i type="int" name="NKREDY">     1</i>
   <i type="int" name="NKREDZ">     1</i>
   <i type="logical" name="SHIFTRED"> F  </i>
   <i type="logical" name="ODDONLY"> F  </i>
   <i type="logical" name="EVENONLY"> F  </i>
   <i type="int" name="LMAXFOCK">     0</i>
   <i type="int" name="NMAXFOCKAE">     0</i>
   <i type="logical" name="LFOCKAEDFT"> F  </i>
   <i name="HFSCREEN">      0.00000000</i>
   <i name="HFSCREENC">      0.00000000</i>
   <i type="int" name="NBANDSGWLOW">     0</i>
  </separator>
  <separator name="vdW DFT" >
   <i type="logical" name="LUSE_VDW"> F  </i>
   <i name="Zab_VDW">     -0.84910000</i>
   <i name="PARAM1">      0.12340000</i>
   <i name="PARAM2">      1.00000000</i>
   <i name="PARAM3">      0.00000000</i>
  </separator>
  <separator name="model GW" >
   <i type="int" name="MODEL_GW">     0</i>
   <i name="MODEL_EPS0">      9.81596048</i>
   <i name="MODEL_ALPHA">      1.00000000</i>
  </separator>
  <separator name="linear response parameters" >
   <i type="logical" name="LEPSILON"> F  </i>
   <i type="logical" name="LRPA"> F  </i>
   <i type="logical" name="LNABLA"> F  </i>
   <i type="logical" name="LVEL"> F  </i>
   <i type="int" name="KINTER">     0</i>
   <i name="CSHIFT">      0.10000000</i>
   <i name="OMEGAMAX">     -1.00000000</i>
   <i name="DEG_THRESHOLD">      0.00200000</i>
   <i name="RTIME">     -0.10000000</i>
   <i name="WPLASMAI">      0.00000000</i>
   <v name="DFIELD">      0.00000000      0.00000000      0.00000000</v>
   <v name="WPLASMA">      0.00000000      0.00000000      0.00000000      0.00000000      0.00000000      0.00000000      0.00000000      0.00000000      0.00000000</v>
  </separator>
  <separator name="orbital magnetization" >
   <i type="logical" name="NUCIND"> F  </i>
   <v name="MAGPOS">      0.00000000      0.00000000      0.00000000</v>
   <i type="logical" name="LNICSALL"> T  </i>
   <i type="logical" name="ORBITALMAG"> F  </i>
   <i type="logical" name="LMAGBLOCH"> F  </i>
   <i type="logical" name="LCHIMAG"> F  </i>
   <i type="logical" name="LGAUGE"> T  </i>
   <i type="int" name="MAGATOM">     0</i>
   <v name="MAGDIPOL">      0.00000000      0.00000000      0.00000000</v>
   <v name="AVECCONST">      0.00000000      0.00000000      0.00000000</v>
  </separator>
  <separator name="response functions" >
   <i type="logical" name="LADDER"> F  </i>
   <i type="logical" name="LRPAFORCE"> F  </i>
   <i type="logical" name="LFXC"> F  </i>
   <i type="logical" name="LHARTREE"> T  </i>
   <i type="int" name="IBSE">     0</i>
   <v type="int" name="KPOINT">    -1     0     0     0</v>
   <i type="logical" name="LTCTE"> F  </i>
   <i type="logical" name="LTETE"> F  </i>
   <i type="logical" name="LTRIPLET"> F  </i>
   <i type="logical" name="LFXCEPS"> F  </i>
   <i type="logical" name="LFXHEG"> F  </i>
   <i type="int" name="NATURALO">     2</i>
   <i type="logical" name="L2ORDER"> F  </i>
   <i type="logical" name="LMP2LT"> F  </i>
   <i type="logical" name="LUSEW"> F  </i>
   <i name="ENCUTGW">     -2.00000000</i>
   <i name="ENCUTGWSOFT">     -2.00000000</i>
   <i name="ENCUTLF">     -1.00000000</i>
   <i type="int" name="LMAXMP2">    -1</i>
   <i name="SCISSOR">      0.00000000</i>
   <i type="int" name="NOMEGA">     0</i>
   <i type="int" name="NOMEGAR">     0</i>
   <i type="int" name="NBANDSGW">    -1</i>
   <i type="int" name="NBANDSO">    -1</i>
   <i type="int" name="NBANDSV">    -1</i>
   <i type="int" name="NELM">   100</i>
   <i type="int" name="NELMHF">     1</i>
   <i type="int" name="DIM">     3</i>
   <i type="int" name="ANTIRES">     0</i>
   <i name="OMEGAMAX">    -30.00000000</i>
   <i name="OMEGAMIN">    -30.00000000</i>
   <i name="OMEGATL">   -200.00000000</i>
   <i type="int" name="OMEGAGRID">   140</i>
   <i name="CSHIFT">     -0.10000000</i>
   <i type="logical" name="SELFENERGY"> F  </i>
   <i type="logical" name="LSPECTRAL"> F  </i>
   <i type="logical" name="LSPECTRALGW"> F  </i>
   <i type="logical" name="LSINGLES"> F  </i>
   <i type="logical" name="LFERMIGW"> F  </i>
   <i type="logical" name="ODDONLYGW"> F  </i>
   <i type="logical" name="EVENONLYGW"> F  </i>
   <i type="int" name="NKREDLFX">     1</i>
   <i type="int" name="NKREDLFY">     1</i>
   <i type="int" name="NKREDLFZ">     1</i>
   <i type="int" name="MAXMEM">  2800</i>
   <i type="int" name="TELESCOPE">     0</i>
   <i type="int" name="TAUPAR">     1</i>
   <i type="int" name="OMEGAPAR">    -1</i>
   <i name="LAMBDA">      1.00000000</i>
  </separator>
  <separator name="External order field" >
   <i name="OFIELD_KAPPA">      0.00000000</i>
   <v name="OFIELD_K">      0.00000000      0.00000000      0.00000000</v>
   <i name="OFIELD_Q6_NEAR">      0.00000000</i>
   <i name="OFIELD_Q6_FAR">      0.00000000</i>
   <i name="OFIELD_A">      0.00000000</i>
  </separator>
 </parameters>
 <atominfo>
  <atoms>       4 </atoms>
  <types>       1 </types>
  <array name="atoms" >
   <dimension dim="1">ion</dimension>
   <field type="string">element</field>
   <field type="int">atomtype</field>
   <set>
    <rc><c>Al</c><c>   1</c></rc>
    <rc><c>Al</c><c>   1</c></rc>
    <rc><c>Al</c><c>   1</c></rc>
    <rc><c>Al</c><c>   1</c></rc>
   </set>
  </array>
  <array name="atomtypes" >
   <dimension dim="1">type</dimension>
   <field type="int">atomspertype</field>
   <field type="string">element</field>
   <field>mass</field>
   <field>valence</field>
   <field type="string">pseudopotential</field>
   <set>
    <rc><c>   4</c><c>Al</c><c>     26.98100000</c><c>      3.00000000</c><c>  PAW_PBE Al 04Jan2001                  </c></rc>
   </set>
  </array>
 </atominfo>
 <structure name="initialpos" >
  <crystal>
   <varray name="basis" >
    <v>       4.04336400       0.00000000       0.00000000 </v>
    <v>       0.00000000       4.00272600       0.00000000 </v>
    <v>       0.00000000       0.00000000       4.04336400 </v>
   </varray>
   <i name="volume">     65.43973655 </i>
   <varray name="rec_basis" >
    <v>       0.24731882       0.00000000       0.00000000 </v>
    <v>       0.00000000       0.24982974       0.00000000 </v>
    <v>       0.00000000       0.00000000       0.24731882 </v>
   </varray>
  </crystal>
  <varray name="positions" >
   <v>       0.00000000       0.00000000       0.00000000 </v>
   <v>       0.00000000       0.50000000       0.50000000 </v>
   <v>       0.50000000       0.00000000       0.50000000 </v>
   <v>       0.50000000       0.50000000       0.00000000 </v>
  </varray>
 </structure>
 <calculation>
  <scstep>
   <time name="dav">    0.46    0.48</time>
   <time name="total">    0.55    0.57</time>
   <energy>
    <i name="alphaZ">     -0.82122822 </i>
    <i name="ewald">   -294.89927415 </i>
    <i name="hartreedc">     -0.39311386 </i>
    <i name="XCdc">   -104.89748688 </i>
    <i name="pawpsdc">    264.80062850 </i>
    <i name="pawaedc">   -136.98248303 </i>
    <i name="eentropy">      0.00042917 </i>
    <i name="bandstr">     66.83806566 </i>
    <i name="atom">    214.15382826 </i>
    <i name="e_fr_energy">      7.79936545 </i>
    <i name="e_wo_entrp">      7.79893629 </i>
    <i name="e_0_energy">      7.79922240 </i>
   </energy>
  </scstep>
  <scstep>
   <time name="dav">    0.52    0.52</time>
   <time name="total">    0.52    0.52</time>
   <energy>
    <i name="e_fr_energy">    -14.33889784 </i>
    <i name="e_wo_entrp">    -14.33887169 </i>
    <i name="e_0_energy">    -14.33888912 </i>
   </energy>
  </scstep>
  <scstep>
   <time name="dav">    0.53    0.53</time>
   <time name="total">    0.53    0.53</time>
   <energy>
    <i name="e_fr_energy">    -15.06014139 </i>
    <i name="e_wo_entrp">    -15.06017545 </i>
    <i name="e_0_energy">    -15.06015274 </i>
   </energy>
  </scstep>
  <scstep>
   <time name="dav">    0.49    0.49</time>
   <time name="total">    0.49    0.49</time>
   <energy>
    <i name="e_fr_energy">    -15.06534913 </i>
    <i name="e_wo_entrp">    -15.06538083 </i>
    <i name="e_0_energy">    -15.06535970 </i>
   </energy>
  </scstep>
  <scstep>
   <time name="dav">    0.53    0.53</time>
   <time name="total">    0.57    0.57</time>
   <energy>
    <i name="e_fr_energy">    -15.06540189 </i>
    <i name="e_wo_entrp">    -15.06543357 </i>
    <i name="e_0_energy">    -15.06541245 </i>
   </energy>
  </scstep>
  <scstep>
   <time name="dav">    0.48    0.48</time>
   <time name="total">    0.62    0.62</time>
   <energy>
    <i name="e_fr_energy">    -15.01362459 </i>
    <i name="e_wo_entrp">    -15.01366032 </i>
    <i name="e_0_energy">    -15.01363650 </i>
   </energy>
  </scstep>
  <scstep>
   <time name="dav">    0.48    0.48</time>
   <time name="total">    0.61    0.61</time>
   <energy>
    <i name="e_fr_energy">    -14.97588666 </i>
    <i name="e_wo_entrp">    -14.97595167 </i>
    <i name="e_0_energy">    -14.97590833 </i>
   </energy>
  </scstep>
  <scstep>
   <time name="dav">    0.52    0.52</time>
   <time name="total">    0.65    0.65</time>
   <energy>
    <i name="e_fr_energy">    -14.97578089 </i>
    <i name="e_wo_entrp">    -14.97584844 </i>
    <i name="e_0_energy">    -14.97580341 </i>
   </energy>
  </scstep>
  <scstep>
   <time name="dav">    0.37    0.37</time>
   <time name="total">    0.46    0.46</time>
   <energy>
    <i name="alphaZ">     -0.82122822 </i>
    <i name="ewald">   -294.89927415 </i>
    <i name="hartreedc">     -0.42705290 </i>
    <i name="XCdc">   -104.45146998 </i>
    <i name="pawpsdc">    571.41643017 </i>
    <i name="pawaedc">   -443.65525071 </i>
    <i name="eentropy">      0.00006795 </i>
    <i name="bandstr">     43.70817539 </i>
    <i name="atom">    214.15382826 </i>
    <i name="e_fr_energy">    -14.97577420 </i>
    <i name="e_wo_entrp">    -14.97584216 </i>
    <i name="e_0_energy">    -14.97579685 </i>
   </energy>
  </scstep>
  <structure>
   <crystal>
    <varray name="basis" >
     <v>       4.04336400       0.00000000       0.00000000 </v>
     <v>       0.00000000       4.00272600       0.00000000 </v>
     <v>       0.00000000       0.00000000       4.04336400 </v>
    </varray>
    <i name="volume">     65.43973655 </i>
    <varray name="rec_basis" >
     <v>       0.24731882       0.00000000       0.00000000 </v>
     <v>       0.00000000       0.24982974       0.00000000 </v>
     <v>       0.00000000       0.00000000       0.24731882 </v>
    </varray>
   </crystal>
   <varray name="positions" >
    <v>       0.00000000       0.00000000       0.00000000 </v>
    <v>       0.00000000       0.50000000       0.50000000 </v>
    <v>       0.50000000       0.00000000       0.50000000 </v>
    <v>       0.50000000       0.50000000       0.00000000 </v>
   </varray>
  </structure>
  <varray name="forces" >
   <v>      -0.00000000       0.00000000      -0.00000000 </v>
   <v>      -0.00000000      -0.00000000       0.00000000 </v>
   <v>       0.00000000      -0.00000000      -0.00000000 </v>
   <v>      -0.00000000      -0.00000000       0.00000000 </v>
  </varray>
  <varray name="stress" >
   <v>       7.75958144       0.00000000       0.00000000 </v>
   <v>      -0.00000000       7.00549697       0.00000000 </v>
   <v>       0.00000000      -0.00000000       7.75958144 </v>
  </varray>
  <energy>
   <i name="e_fr_energy">    -14.97577420 </i>
   <i name="e_wo_entrp">    -14.97579685 </i>
   <i name="e_0_energy">      0.00006795 </i>
  </energy>
  <time name="totalsc">    5.72    5.76</time>
  <eigenvalues>
   <array>
    <dimension dim="1">band</dimension>
    <dimension dim="2">kpoint</dimension>
    <dimension dim="3">spin</dimension>
    <field>eigene</field>
    <field>occ</field>
    <set>
     <set comment="spin 1">
      <set comment="kpoint 1">
       <r>   -3.1037    1.0000 </r>
       <r>    5.0968    1.0000 </r>
       <r>    5.0968    1.0000 </r>
       <r>    5.2445    1.0000 </r>
       <r>    6.4181    1.0000 </r>
       <r>    6.4181    1.0000 </r>
       <r>    6.6265    1.0000 </r>
       <r>   13.2722    0.0000 </r>
       <r>   13.3899    0.0000 </r>
       <r>   13.3900    0.0000 </r>
       <r>   13.6002    0.0000 </r>
       <r>   13.6031    0.0000 </r>
      </set>
      <set comment="kpoint 2">
       <r>   -3.0289    1.0000 </r>
       <r>    4.1206    1.0000 </r>
       <r>    5.1652    1.0000 </r>
       <r>    5.3128    1.0000 </r>
       <r>    6.4903    1.0000 </r>
       <r>    6.6985    1.0000 </r>
       <r>    7.5237    1.0000 </r>
       <r>   11.9753    0.0000 </r>
       <r>   12.1107    0.0000 </r>
       <r>   13.0987    0.0000 </r>
       <r>   13.3168    0.0000 </r>
       <r>   13.4637    0.0000 </r>
      </set>
      <set comment="kpoint 3">
       <r>   -2.8047    1.0000 </r>
       <r>    2.8142    1.0000 </r>
       <r>    5.3706    1.0000 </r>
       <r>    5.5179    1.0000 </r>
       <r>    6.7057    1.0000 </r>
       <r>    6.9129    1.0000 </r>
       <r>    9.2182   -0.0000 </r>
       <r>   10.6668    0.0000 </r>
       <r>   10.8050    0.0000 </r>
       <r>   12.1014    0.0000 </r>
       <r>   12.3142    0.0000 </r>
       <r>   13.6849    0.0000 </r>
      </set>
      <set comment="kpoint 4">
       <r>   -2.4318    1.0000 </r>
       <r>    1.6012    1.0000 </r>
       <r>    5.7132    1.0000 </r>
       <r>    5.8599    1.0000 </r>
       <r>    7.0595    1.0000 </r>
       <r>    7.2638    1.0000 </r>
       <r>    9.4949    0.0000 </r>
       <r>    9.6351    0.0000 </r>
       <r>   11.0486    0.0000 </r>
       <r>   11.0774    0.0000 </r>
       <r>   11.2563    0.0000 </r>
       <r>   14.0529    0.0000 </r>
      </set>
      <set comment="kpoint 5">
       <r>   -1.9113    1.0000 </r>
       <r>    0.5150    1.0000 </r>
       <r>    6.1932    1.0000 </r>
       <r>    6.3390    1.0000 </r>
       <r>    7.5376    1.0000 </r>
       <r>    7.7318    1.0000 </r>
       <r>    8.4615   -0.0000 </r>
       <r>    8.6035   -0.0000 </r>
       <r>   10.0839    0.0000 </r>
       <r>   10.2799    0.0000 </r>
       <r>   13.0660    0.0000 </r>
       <r>   14.5667    0.0000 </r>
      </set>
      <set comment="kpoint 6">
       <r>   -1.2451    1.0000 </r>
       <r>   -0.4353    1.0000 </r>
       <r>    6.8110    1.0000 </r>
       <r>    6.9558    1.0000 </r>
       <r>    7.5670    1.0000 </r>
       <r>    7.7105    1.0000 </r>
       <r>    8.0748    0.0462 </r>
       <r>    8.2040   -0.0000 </r>
       <r>    9.3575   -0.0000 </r>
       <r>    9.4874    0.0000 </r>
       <r>   15.1722    0.0000 </r>
       <r>   15.2282    0.0000 </r>
      </set>
      <set comment="kpoint 7">
       <r>   -3.0274    1.0000 </r>
       <r>    4.2597    1.0000 </r>
       <r>    5.1666    1.0000 </r>
       <r>    5.1666    1.0000 </r>
       <r>    6.4917    1.0000 </r>
       <r>    6.4917    1.0000 </r>
       <r>    7.7430    1.0000 </r>
       <r>   12.1097    0.0000 </r>
       <r>   12.1097    0.0000 </r>
       <r>   13.2377    0.0000 </r>
       <r>   13.2377    0.0000 </r>
       <r>   13.3477    0.0000 </r>
      </set>
      <set comment="kpoint 8">
       <r>   -2.9526    1.0000 </r>
       <r>    4.1924    1.0000 </r>
       <r>    4.3301    1.0000 </r>
       <r>    5.2351    1.0000 </r>
       <r>    6.5634    1.0000 </r>
       <r>    7.5949    1.0000 </r>
       <r>    7.8124    1.0000 </r>
       <r>   11.1662    0.0000 </r>
       <r>   12.0460    0.0000 </r>
       <r>   12.1791    0.0000 </r>
       <r>   13.1656    0.0000 </r>
       <r>   13.3030    0.0000 </r>
      </set>
      <set comment="kpoint 9">
       <r>   -2.7285    1.0000 </r>
       <r>    2.8872    1.0000 </r>
       <r>    4.5409    1.0000 </r>
       <r>    5.4405    1.0000 </r>
       <r>    6.7764    1.0000 </r>
       <r>    8.0191    0.8296 </r>
       <r>    9.2868   -0.0000 </r>
       <r>    9.9190    0.0000 </r>
       <r>   10.7373    0.0000 </r>
       <r>   12.1724    0.0000 </r>
       <r>   12.3873    0.0000 </r>
       <r>   13.2776    0.0000 </r>
      </set>
      <set comment="kpoint 10">
       <r>   -2.3558    1.0000 </r>
       <r>    1.6750    1.0000 </r>
       <r>    4.8915    1.0000 </r>
       <r>    5.7831    1.0000 </r>
       <r>    7.1193    1.0000 </r>
       <r>    8.3547   -0.0000 </r>
       <r>    8.7756   -0.0000 </r>
       <r>    9.5652    0.0000 </r>
       <r>   11.1277    0.0000 </r>
       <r>   11.1410    0.0000 </r>
       <r>   12.2444    0.0000 </r>
       <r>   12.7337    0.0000 </r>
      </set>
      <set comment="kpoint 11">
       <r>   -1.8357    1.0000 </r>
       <r>    0.5894    1.0000 </r>
       <r>    5.3808    1.0000 </r>
       <r>    6.2632    1.0000 </r>
       <r>    7.4288    1.0000 </r>
       <r>    7.9250    1.0026 </r>
       <r>    8.5318   -0.0000 </r>
       <r>    8.7779   -0.0000 </r>
       <r>   10.1985    0.0000 </r>
       <r>   11.2654    0.0000 </r>
       <r>   13.1129    0.0000 </r>
       <r>   13.2178    0.0000 </r>
      </set>
      <set comment="kpoint 12">
       <r>   -1.1698    1.0000 </r>
       <r>   -0.3604    1.0000 </r>
       <r>    6.0057    1.0000 </r>
       <r>    6.7551    1.0000 </r>
       <r>    6.8811    1.0000 </r>
       <r>    7.6372    1.0000 </r>
       <r>    8.3056   -0.0000 </r>
       <r>    8.8859   -0.0000 </r>
       <r>    9.8283    0.0000 </r>
       <r>   10.4134    0.0000 </r>
       <r>   13.8382    0.0000 </r>
       <r>   14.5966    0.0000 </r>
      </set>
      <set comment="kpoint 13">
       <r>   -2.7986    1.0000 </r>
       <r>    2.9308    1.0000 </r>
       <r>    5.3761    1.0000 </r>
       <r>    5.3761    1.0000 </r>
       <r>    6.7114    1.0000 </r>
       <r>    6.7114    1.0000 </r>
       <r>    9.4667    0.0000 </r>
       <r>   10.7776    0.0000 </r>
       <r>   10.7776    0.0000 </r>
       <r>   12.2157    0.0000 </r>
       <r>   12.2157    0.0000 </r>
       <r>   13.5738    0.0000 </r>
      </set>
      <set comment="kpoint 14">
       <r>   -2.7240    1.0000 </r>
       <r>    3.0023    1.0000 </r>
       <r>    4.4078    1.0000 </r>
       <r>    5.4446    1.0000 </r>
       <r>    6.7806    1.0000 </r>
       <r>    7.8071    1.0000 </r>
       <r>    9.5331    0.0000 </r>
       <r>    9.8977    0.0000 </r>
       <r>   10.8467    0.0000 </r>
       <r>   12.2581    0.0000 </r>
       <r>   12.2847    0.0000 </r>
       <r>   13.1776    0.0000 </r>
      </set>
      <set comment="kpoint 15">
       <r>   -2.5002    1.0000 </r>
       <r>    3.1060    1.0000 </r>
       <r>    3.2165    1.0000 </r>
       <r>    5.6502    1.0000 </r>
       <r>    6.9793    1.0000 </r>
       <r>    8.6756   -0.0000 </r>
       <r>    9.4889    0.0000 </r>
       <r>    9.7277    0.0000 </r>
       <r>   10.9486    0.0000 </r>
       <r>   11.0540    0.0000 </r>
       <r>   12.3881    0.0000 </r>
       <r>   12.4933    0.0000 </r>
      </set>
      <set comment="kpoint 16">
       <r>   -2.1281    1.0000 </r>
       <r>    1.8961    1.0000 </r>
       <r>    3.5728    1.0000 </r>
       <r>    5.9930    1.0000 </r>
       <r>    7.1439    1.0000 </r>
       <r>    7.7088    1.0000 </r>
       <r>    9.7762    0.0000 </r>
       <r>   10.0165    0.0000 </r>
       <r>   11.3161    0.0000 </r>
       <r>   11.3885    0.0000 </r>
       <r>   11.3993    0.0000 </r>
       <r>   12.8547    0.0000 </r>
      </set>
      <set comment="kpoint 17">
       <r>   -1.6088    1.0000 </r>
       <r>    0.8123    1.0000 </r>
       <r>    4.0700    1.0000 </r>
       <r>    6.3649    1.0000 </r>
       <r>    6.4732    1.0000 </r>
       <r>    7.9450    1.0105 </r>
       <r>    8.7425   -0.0000 </r>
       <r>   10.0162    0.0000 </r>
       <r>   10.8767    0.0000 </r>
       <r>   11.8824    0.0000 </r>
       <r>   12.8936    0.0000 </r>
       <r>   13.0134    0.0000 </r>
      </set>
      <set comment="kpoint 18">
       <r>   -0.9440    1.0000 </r>
       <r>   -0.1360    1.0000 </r>
       <r>    4.7058    1.0000 </r>
       <r>    5.4759    1.0000 </r>
       <r>    7.0913    1.0000 </r>
       <r>    7.8477    1.0000 </r>
       <r>    8.5539   -0.0000 </r>
       <r>    9.2911   -0.0000 </r>
       <r>   11.3280    0.0000 </r>
       <r>   12.0444    0.0000 </r>
       <r>   12.5027    0.0000 </r>
       <r>   13.2595    0.0000 </r>
      </set>
      <set comment="kpoint 19">
       <r>   -2.4181    1.0000 </r>
       <r>    1.6948    1.0000 </r>
       <r>    5.7256    1.0000 </r>
       <r>    5.7256    1.0000 </r>
       <r>    7.0717    1.0000 </r>
       <r>    7.0717    1.0000 </r>
       <r>    9.5828    0.0000 </r>
       <r>    9.5828    0.0000 </r>
       <r>   11.1376    0.0000 </r>
       <r>   11.1376    0.0000 </r>
       <r>   11.3598    0.0000 </r>
       <r>   13.9501    0.0000 </r>
      </set>
      <set comment="kpoint 20">
       <r>   -2.3437    1.0000 </r>
       <r>    1.7671    1.0000 </r>
       <r>    4.7662    1.0000 </r>
       <r>    5.7941    1.0000 </r>
       <r>    7.1293    1.0000 </r>
       <r>    8.1534   -0.0032 </r>
       <r>    8.7325   -0.0000 </r>
       <r>    9.6518    0.0000 </r>
       <r>   11.2131    0.0000 </r>
       <r>   11.4197    0.0000 </r>
       <r>   12.1167    0.0000 </r>
       <r>   12.6111    0.0000 </r>
      </set>
      <set comment="kpoint 21">
       <r>   -2.1206    1.0000 </r>
       <r>    1.9836    1.0000 </r>
       <r>    3.4700    1.0000 </r>
       <r>    5.9998    1.0000 </r>
       <r>    7.1375    1.0000 </r>
       <r>    7.6997    1.0000 </r>
       <r>    9.8015    0.0000 </r>
       <r>    9.8587    0.0000 </r>
       <r>   11.3007    0.0000 </r>
       <r>   11.4537    0.0000 </r>
       <r>   11.5728    0.0000 </r>
       <r>   12.7733    0.0000 </r>
      </set>
      <set comment="kpoint 22">
       <r>   -1.7495    1.0000 </r>
       <r>    2.2638    1.0000 </r>
       <r>    2.3438    1.0000 </r>
       <r>    6.2122    1.0000 </r>
       <r>    6.3428    1.0000 </r>
       <r>    7.8165    1.0000 </r>
       <r>   10.1279    0.0000 </r>
       <r>   10.2036    0.0000 </r>
       <r>   11.3666    0.0000 </r>
       <r>   11.4124    0.0000 </r>
       <r>   12.0789    0.0000 </r>
       <r>   12.2244    0.0000 </r>
      </set>
      <set comment="kpoint 23">
       <r>   -1.2316    1.0000 </r>
       <r>    1.1831    1.0000 </r>
       <r>    2.8464    1.0000 </r>
       <r>    5.1842    1.0000 </r>
       <r>    6.8234    1.0000 </r>
       <r>    8.2951   -0.0000 </r>
       <r>    9.0939   -0.0000 </r>
       <r>   10.5509    0.0000 </r>
       <r>   10.6863    0.0000 </r>
       <r>   12.1063    0.0000 </r>
       <r>   12.5697    0.0000 </r>
       <r>   12.9590    0.0000 </r>
      </set>
      <set comment="kpoint 24">
       <r>   -0.5685    1.0000 </r>
       <r>    0.2374    1.0000 </r>
       <r>    3.4898    1.0000 </r>
       <r>    4.2709    1.0000 </r>
       <r>    7.4419    1.0000 </r>
       <r>    8.1986   -0.0000 </r>
       <r>    8.9249   -0.0000 </r>
       <r>    9.6847    0.0000 </r>
       <r>   11.3067    0.0000 </r>
       <r>   12.0645    0.0000 </r>
       <r>   12.7477    0.0000 </r>
       <r>   13.1500    0.0000 </r>
      </set>
      <set comment="kpoint 25">
       <r>   -1.8872    1.0000 </r>
       <r>    0.5874    1.0000 </r>
       <r>    6.2152    1.0000 </r>
       <r>    6.2152    1.0000 </r>
       <r>    7.5565    1.0000 </r>
       <r>    7.5565    1.0000 </r>
       <r>    8.5290   -0.0000 </r>
       <r>    8.5290   -0.0000 </r>
       <r>   10.1451    0.0000 </r>
       <r>   10.1451    0.0000 </r>
       <r>   13.3845    0.0000 </r>
       <r>   14.4758    0.0000 </r>
      </set>
      <set comment="kpoint 26">
       <r>   -1.8130    1.0000 </r>
       <r>    0.6603    1.0000 </r>
       <r>    5.2661    1.0000 </r>
       <r>    6.2838    1.0000 </r>
       <r>    7.4054    1.0000 </r>
       <r>    7.9029    1.0003 </r>
       <r>    8.5979   -0.0000 </r>
       <r>    8.6036   -0.0000 </r>
       <r>   10.2457    0.0000 </r>
       <r>   11.1173    0.0000 </r>
       <r>   13.1042    0.0000 </r>
       <r>   13.4123    0.0000 </r>
      </set>
      <set comment="kpoint 27">
       <r>   -1.5908    1.0000 </r>
       <r>    0.8787    1.0000 </r>
       <r>    3.9777    1.0000 </r>
       <r>    6.3226    1.0000 </r>
       <r>    6.4897    1.0000 </r>
       <r>    7.9604    1.0229 </r>
       <r>    8.8045   -0.0000 </r>
       <r>    9.9729    0.0000 </r>
       <r>   10.7593    0.0000 </r>
       <r>   11.7933    0.0000 </r>
       <r>   12.7191    0.0000 </r>
       <r>   13.0297    0.0000 </r>
      </set>
      <set comment="kpoint 28">
       <r>   -1.2211    1.0000 </r>
       <r>    1.2419    1.0000 </r>
       <r>    2.7770    1.0000 </r>
       <r>    5.1632    1.0000 </r>
       <r>    6.8330    1.0000 </r>
       <r>    8.3049   -0.0000 </r>
       <r>    9.1489   -0.0000 </r>
       <r>   10.5963    0.0000 </r>
       <r>   10.6202    0.0000 </r>
       <r>   12.0495    0.0000 </r>
       <r>   12.3225    0.0000 </r>
       <r>   12.9383    0.0000 </r>
      </set>
      <set comment="kpoint 29">
       <r>   -0.7051    1.0000 </r>
       <r>    1.7006    1.0000 </r>
       <r>    1.7489    1.0000 </r>
       <r>    4.1107    1.0000 </r>
       <r>    7.3140    1.0000 </r>
       <r>    8.8002   -0.0000 </r>
       <r>    9.5858    0.0000 </r>
       <r>    9.6313    0.0000 </r>
       <r>   11.0767    0.0000 </r>
       <r>   11.1210    0.0000 </r>
       <r>   11.9054    0.0000 </r>
       <r>   13.3614    0.0000 </r>
      </set>
      <set comment="kpoint 30">
       <r>   -0.0445    1.0000 </r>
       <r>    0.7584    1.0000 </r>
       <r>    2.3979    1.0000 </r>
       <r>    3.1864    1.0000 </r>
       <r>    7.9329    1.0047 </r>
       <r>    8.6901   -0.0000 </r>
       <r>    9.4336    0.0000 </r>
       <r>   10.1966    0.0000 </r>
       <r>   10.2515    0.0000 </r>
       <r>   11.0096    0.0000 </r>
       <r>   11.7504    0.0000 </r>
       <r>   12.4988    0.0000 </r>
      </set>
      <set comment="kpoint 31">
       <r>   -1.2076    1.0000 </r>
       <r>   -0.3816    1.0000 </r>
       <r>    6.8454    1.0000 </r>
       <r>    6.8454    1.0000 </r>
       <r>    7.6166    1.0000 </r>
       <r>    7.6166    1.0000 </r>
       <r>    8.0809    0.0083 </r>
       <r>    8.0809    0.0083 </r>
       <r>    9.3608   -0.0000 </r>
       <r>    9.3608   -0.0000 </r>
       <r>   15.1508    0.0000 </r>
       <r>   15.2202    0.0000 </r>
      </set>
      <set comment="kpoint 32">
       <r>   -1.1338    1.0000 </r>
       <r>   -0.3083    1.0000 </r>
       <r>    5.9049    1.0000 </r>
       <r>    6.6724    1.0000 </r>
       <r>    6.9141    1.0000 </r>
       <r>    7.6854    1.0000 </r>
       <r>    8.3305   -0.0000 </r>
       <r>    8.8572   -0.0000 </r>
       <r>    9.7238    0.0000 </r>
       <r>   10.2532    0.0000 </r>
       <r>   13.7364    0.0000 </r>
       <r>   14.5059    0.0000 </r>
      </set>
      <set comment="kpoint 33">
       <r>   -0.9126    1.0000 </r>
       <r>   -0.0884    1.0000 </r>
       <r>    4.6271    1.0000 </r>
       <r>    5.4137    1.0000 </r>
       <r>    7.1202    1.0000 </r>
       <r>    7.8917    1.0001 </r>
       <r>    8.5819   -0.0000 </r>
       <r>    9.3270   -0.0000 </r>
       <r>   11.1260    0.0000 </r>
       <r>   11.8507    0.0000 </r>
       <r>   12.4259    0.0000 </r>
       <r>   13.1976    0.0000 </r>
      </set>
      <set comment="kpoint 34">
       <r>   -0.5446    1.0000 </r>
       <r>    0.2774    1.0000 </r>
       <r>    3.4338    1.0000 </r>
       <r>    4.2311    1.0000 </r>
       <r>    7.4639    1.0000 </r>
       <r>    8.2358   -0.0000 </r>
       <r>    8.9474   -0.0000 </r>
       <r>    9.7210    0.0000 </r>
       <r>   11.2530    0.0000 </r>
       <r>   12.0259    0.0000 </r>
       <r>   12.6950    0.0000 </r>
       <r>   12.9078    0.0000 </r>
      </set>
      <set comment="kpoint 35">
       <r>   -0.0311    1.0000 </r>
       <r>    0.7879    1.0000 </r>
       <r>    2.3629    1.0000 </r>
       <r>    3.1677    1.0000 </r>
       <r>    7.9453    1.0107 </r>
       <r>    8.7177   -0.0000 </r>
       <r>    9.4464    0.0000 </r>
       <r>   10.2185    0.0000 </r>
       <r>   10.2245    0.0000 </r>
       <r>   10.9917    0.0000 </r>
       <r>   11.7171    0.0000 </r>
       <r>   12.4806    0.0000 </r>
      </set>
      <set comment="kpoint 36">
       <r>    0.6263    1.0000 </r>
       <r>    1.4254    1.0000 </r>
       <r>    1.4416    1.0000 </r>
       <r>    2.2359    1.0000 </r>
       <r>    8.5647   -0.0000 </r>
       <r>    9.3224   -0.0000 </r>
       <r>    9.3375   -0.0000 </r>
       <r>   10.0787    0.0000 </r>
       <r>   10.0956    0.0000 </r>
       <r>   10.8388    0.0000 </r>
       <r>   10.8543    0.0000 </r>
       <r>   11.6091    0.0000 </r>
      </set>
      <set comment="kpoint 37">
       <r>   -2.9541    1.0000 </r>
       <r>    4.1910    1.0000 </r>
       <r>    4.1910    1.0000 </r>
       <r>    5.3812    1.0000 </r>
       <r>    6.7698    1.0000 </r>
       <r>    7.5936    1.0000 </r>
       <r>    7.5936    1.0000 </r>
       <r>   11.0341    0.0000 </r>
       <r>   12.1799    0.0000 </r>
       <r>   12.1799    0.0000 </r>
       <r>   13.3822    0.0000 </r>
       <r>   13.3822    0.0000 </r>
      </set>
      <set comment="kpoint 38">
       <r>   -2.7300    1.0000 </r>
       <r>    2.8858    1.0000 </r>
       <r>    4.4022    1.0000 </r>
       <r>    5.5863    1.0000 </r>
       <r>    6.9810    1.0000 </r>
       <r>    7.8017    1.0000 </r>
       <r>    9.2855   -0.0000 </r>
       <r>    9.7883    0.0000 </r>
       <r>   10.8740    0.0000 </r>
       <r>   12.3832    0.0000 </r>
       <r>   12.3875    0.0000 </r>
       <r>   13.0567    0.0000 </r>
      </set>
      <set comment="kpoint 39">
       <r>   -2.3573    1.0000 </r>
       <r>    1.6735    1.0000 </r>
       <r>    4.7535    1.0000 </r>
       <r>    5.9283    1.0000 </r>
       <r>    7.3152    1.0000 </r>
       <r>    8.1422   -0.0072 </r>
       <r>    8.6519   -0.0000 </r>
       <r>    9.7040    0.0000 </r>
       <r>   11.1400    0.0000 </r>
       <r>   11.3312    0.0000 </r>
       <r>   12.0250    0.0000 </r>
       <r>   12.7330    0.0000 </r>
      </set>
      <set comment="kpoint 40">
       <r>   -1.8372    1.0000 </r>
       <r>    0.5879    1.0000 </r>
       <r>    5.2437    1.0000 </r>
       <r>    6.4075    1.0000 </r>
       <r>    7.4225    1.0000 </r>
       <r>    7.9992    0.9971 </r>
       <r>    8.5901   -0.0000 </r>
       <r>    8.6723   -0.0000 </r>
       <r>   10.3755    0.0000 </r>
       <r>   11.0500    0.0000 </r>
       <r>   13.1137    0.0000 </r>
       <r>   13.2157    0.0000 </r>
      </set>
      <set comment="kpoint 41">
       <r>   -1.1713    1.0000 </r>
       <r>   -0.3619    1.0000 </r>
       <r>    5.8703    1.0000 </r>
       <r>    6.6256    1.0000 </r>
       <r>    7.0244    1.0000 </r>
       <r>    7.7792    1.0000 </r>
       <r>    8.4869   -0.0000 </r>
       <r>    8.9235   -0.0000 </r>
       <r>    9.7779    0.0000 </r>
       <r>   10.2137    0.0000 </r>
       <r>   13.8344    0.0000 </r>
       <r>   14.5877    0.0000 </r>
      </set>
      <set comment="kpoint 42">
       <r>   -2.8779    1.0000 </r>
       <r>    4.2628    1.0000 </r>
       <r>    4.2628    1.0000 </r>
       <r>    4.4003    1.0000 </r>
       <r>    7.6640    1.0000 </r>
       <r>    7.6640    1.0000 </r>
       <r>    7.8808    1.0000 </r>
       <r>   11.1057    0.0000 </r>
       <r>   11.2361    0.0000 </r>
       <r>   11.2361    0.0000 </r>
       <r>   13.7929    0.0000 </r>
       <r>   13.9787    0.0000 </r>
      </set>
      <set comment="kpoint 43">
       <r>   -2.6539    1.0000 </r>
       <r>    2.9588    1.0000 </r>
       <r>    4.4738    1.0000 </r>
       <r>    4.6110    1.0000 </r>
       <r>    7.8677    1.0000 </r>
       <r>    8.0811    0.0074 </r>
       <r>    9.3513   -0.0000 </r>
       <r>    9.8650    0.0000 </r>
       <r>    9.9923    0.0000 </r>
       <r>   11.4471    0.0000 </r>
       <r>   13.1250    0.0000 </r>
       <r>   13.3439    0.0000 </r>
      </set>
      <set comment="kpoint 44">
       <r>   -2.2814    1.0000 </r>
       <r>    1.7473    1.0000 </r>
       <r>    4.8248    1.0000 </r>
       <r>    4.9612    1.0000 </r>
       <r>    8.1693   -0.0008 </r>
       <r>    8.3263   -0.0000 </r>
       <r>    8.8071   -0.0000 </r>
       <r>    8.8803   -0.0000 </r>
       <r>   11.1789    0.0000 </r>
       <r>   11.8198    0.0000 </r>
       <r>   12.0972    0.0000 </r>
       <r>   12.3144    0.0000 </r>
      </set>
      <set comment="kpoint 45">
       <r>   -1.7615    1.0000 </r>
       <r>    0.6622    1.0000 </r>
       <r>    5.3138    1.0000 </r>
       <r>    5.4490    1.0000 </r>
       <r>    7.6088    1.0000 </r>
       <r>    7.7309    1.0000 </r>
       <r>    8.7630   -0.0000 </r>
       <r>    8.9620   -0.0000 </r>
       <r>   11.1317    0.0000 </r>
       <r>   11.3418    0.0000 </r>
       <r>   12.2347    0.0000 </r>
       <r>   13.2285    0.0000 </r>
      </set>
      <set comment="kpoint 46">
       <r>   -1.0960    1.0000 </r>
       <r>   -0.2871    1.0000 </r>
       <r>    5.9329    1.0000 </r>
       <r>    6.0611    1.0000 </r>
       <r>    6.7373    1.0000 </r>
       <r>    6.8634    1.0000 </r>
       <r>    9.3022   -0.0000 </r>
       <r>    9.4581    0.0000 </r>
       <r>   10.3664    0.0000 </r>
       <r>   10.5237    0.0000 </r>
       <r>   12.8660    0.0000 </r>
       <r>   13.6196    0.0000 </r>
      </set>
      <set comment="kpoint 47">
       <r>   -2.6493    1.0000 </r>
       <r>    3.0737    1.0000 </r>
       <r>    4.4781    1.0000 </r>
       <r>    4.4781    1.0000 </r>
       <r>    7.8716    1.0000 </r>
       <r>    7.8716    1.0000 </r>
       <r>    9.5953    0.0000 </r>
       <r>    9.9711    0.0000 </r>
       <r>    9.9711    0.0000 </r>
       <r>   11.3231    0.0000 </r>
       <r>   13.2445    0.0000 </r>
       <r>   13.2445    0.0000 </r>
      </set>
      <set comment="kpoint 48">
       <r>   -2.4257    1.0000 </r>
       <r>    3.1774    1.0000 </r>
       <r>    3.2878    1.0000 </r>
       <r>    4.6885    1.0000 </r>
       <r>    8.0291    0.6893 </r>
       <r>    8.7860   -0.0000 </r>
       <r>    9.5201    0.0000 </r>
       <r>    9.7107    0.0000 </r>
       <r>   10.1619    0.0000 </r>
       <r>   10.2162    0.0000 </r>
       <r>   13.3305    0.0000 </r>
       <r>   13.4452    0.0000 </r>
      </set>
      <set comment="kpoint 49">
       <r>   -2.0538    1.0000 </r>
       <r>    1.9683    1.0000 </r>
       <r>    3.6439    1.0000 </r>
       <r>    5.0377    1.0000 </r>
       <r>    7.4810    1.0000 </r>
       <r>    8.5253   -0.0000 </r>
       <r>    8.8599   -0.0000 </r>
       <r>   10.1838    0.0000 </r>
       <r>   10.4673    0.0000 </r>
       <r>   11.4621    0.0000 </r>
       <r>   12.3181    0.0000 </r>
       <r>   13.7904    0.0000 </r>
      </set>
      <set comment="kpoint 50">
       <r>   -1.5348    1.0000 </r>
       <r>    0.8851    1.0000 </r>
       <r>    4.1405    1.0000 </r>
       <r>    5.5175    1.0000 </r>
       <r>    6.4825    1.0000 </r>
       <r>    7.8396    1.0000 </r>
       <r>    8.9801   -0.0000 </r>
       <r>   10.5565    0.0000 </r>
       <r>   10.9724    0.0000 </r>
       <r>   11.4306    0.0000 </r>
       <r>   12.9629    0.0000 </r>
       <r>   13.2407    0.0000 </r>
      </set>
      <set comment="kpoint 51">
       <r>   -0.8703    1.0000 </r>
       <r>   -0.0627    1.0000 </r>
       <r>    4.7745    1.0000 </r>
       <r>    5.5287    1.0000 </r>
       <r>    6.1961    1.0000 </r>
       <r>    6.9428    1.0000 </r>
       <r>    9.5880    0.0000 </r>
       <r>   10.2866    0.0000 </r>
       <r>   11.4339    0.0000 </r>
       <r>   11.5969    0.0000 </r>
       <r>   12.1192    0.0000 </r>
       <r>   12.3531    0.0000 </r>
      </set>
      <set comment="kpoint 52">
       <r>   -2.2693    1.0000 </r>
       <r>    1.8393    1.0000 </r>
       <r>    4.8360    1.0000 </r>
       <r>    4.8360    1.0000 </r>
       <r>    8.1740   -0.0005 </r>
       <r>    8.1740   -0.0005 </r>
       <r>    8.8421   -0.0000 </r>
       <r>    8.8421   -0.0000 </r>
       <r>   11.4014    0.0000 </r>
       <r>   11.7579    0.0000 </r>
       <r>   12.1870    0.0000 </r>
       <r>   12.1870    0.0000 </r>
      </set>
      <set comment="kpoint 53">
       <r>   -2.0463    1.0000 </r>
       <r>    2.0557    1.0000 </r>
       <r>    3.5411    1.0000 </r>
       <r>    5.0447    1.0000 </r>
       <r>    7.4599    1.0000 </r>
       <r>    8.5308   -0.0000 </r>
       <r>    8.9341   -0.0000 </r>
       <r>    9.9620    0.0000 </r>
       <r>   10.3781    0.0000 </r>
       <r>   11.7261    0.0000 </r>
       <r>   12.4003    0.0000 </r>
       <r>   13.6806    0.0000 </r>
      </set>
      <set comment="kpoint 54">
       <r>   -1.6754    1.0000 </r>
       <r>    2.3358    1.0000 </r>
       <r>    2.4157    1.0000 </r>
       <r>    5.3841    1.0000 </r>
       <r>    6.3311    1.0000 </r>
       <r>    8.8553   -0.0000 </r>
       <r>    9.2303   -0.0000 </r>
       <r>    9.3050   -0.0000 </r>
       <r>   11.7401    0.0000 </r>
       <r>   11.9689    0.0000 </r>
       <r>   12.7432    0.0000 </r>
       <r>   12.7837    0.0000 </r>
      </set>
      <set comment="kpoint 55">
       <r>   -1.1577    1.0000 </r>
       <r>    1.2557    1.0000 </r>
       <r>    2.9180    1.0000 </r>
       <r>    5.2379    1.0000 </r>
       <r>    5.9241    1.0000 </r>
       <r>    8.1987   -0.0000 </r>
       <r>    9.3392   -0.0000 </r>
       <r>    9.7955    0.0000 </r>
       <r>   11.5379    0.0000 </r>
       <r>   12.0708    0.0000 </r>
       <r>   12.6667    0.0000 </r>
       <r>   13.0709    0.0000 </r>
      </set>
      <set comment="kpoint 56">
       <r>   -0.4950    1.0000 </r>
       <r>    0.3105    1.0000 </r>
       <r>    3.5607    1.0000 </r>
       <r>    4.3401    1.0000 </r>
       <r>    6.5343    1.0000 </r>
       <r>    7.2980    1.0000 </r>
       <r>    9.9601    0.0000 </r>
       <r>   10.4199    0.0000 </r>
       <r>   10.7058    0.0000 </r>
       <r>   11.1789    0.0000 </r>
       <r>   13.2226    0.0000 </r>
       <r>   13.7409    0.0000 </r>
      </set>
      <set comment="kpoint 57">
       <r>   -1.7389    1.0000 </r>
       <r>    0.7331    1.0000 </r>
       <r>    5.3347    1.0000 </r>
       <r>    5.3347    1.0000 </r>
       <r>    7.6682    1.0000 </r>
       <r>    7.6682    1.0000 </r>
       <r>    8.7789   -0.0000 </r>
       <r>    8.7789   -0.0000 </r>
       <r>   11.1949    0.0000 </r>
       <r>   11.1949    0.0000 </r>
       <r>   12.1311    0.0000 </r>
       <r>   13.5377    0.0000 </r>
      </set>
      <set comment="kpoint 58">
       <r>   -1.5167    1.0000 </r>
       <r>    0.9514    1.0000 </r>
       <r>    4.0483    1.0000 </r>
       <r>    5.5331    1.0000 </r>
       <r>    6.4403    1.0000 </r>
       <r>    7.9011    1.0003 </r>
       <r>    8.9961   -0.0000 </r>
       <r>   10.3699    0.0000 </r>
       <r>   10.8852    0.0000 </r>
       <r>   11.4578    0.0000 </r>
       <r>   12.7888    0.0000 </r>
       <r>   13.1979    0.0000 </r>
      </set>
      <set comment="kpoint 59">
       <r>   -1.1472    1.0000 </r>
       <r>    1.3144    1.0000 </r>
       <r>    2.8487    1.0000 </r>
       <r>    5.2181    1.0000 </r>
       <r>    5.9328    1.0000 </r>
       <r>    8.2541   -0.0000 </r>
       <r>    9.3489   -0.0000 </r>
       <r>    9.7296    0.0000 </r>
       <r>   11.5614    0.0000 </r>
       <r>   12.0504    0.0000 </r>
       <r>   12.4420    0.0000 </r>
       <r>   13.0318    0.0000 </r>
      </set>
      <set comment="kpoint 60">
       <r>   -0.6315    1.0000 </r>
       <r>    1.7729    1.0000 </r>
       <r>    1.8211    1.0000 </r>
       <r>    4.1802    1.0000 </r>
       <r>    6.4048    1.0000 </r>
       <r>    8.6968   -0.0000 </r>
       <r>    8.7426   -0.0000 </r>
       <r>    9.8387    0.0000 </r>
       <r>   11.0246    0.0000 </r>
       <r>   12.0825    0.0000 </r>
       <r>   12.1254    0.0000 </r>
       <r>   14.3270    0.0000 </r>
      </set>
      <set comment="kpoint 61">
       <r>    0.0287    1.0000 </r>
       <r>    0.8312    1.0000 </r>
       <r>    2.4698    1.0000 </r>
       <r>    3.2577    1.0000 </r>
       <r>    7.0306    1.0000 </r>
       <r>    7.7958    1.0000 </r>
       <r>    9.3679   -0.0000 </r>
       <r>   10.1292    0.0000 </r>
       <r>   10.4625    0.0000 </r>
       <r>   11.2144    0.0000 </r>
       <r>   12.7524    0.0000 </r>
       <r>   13.4957    0.0000 </r>
      </set>
      <set comment="kpoint 62">
       <r>   -1.0600    1.0000 </r>
       <r>   -0.2349    1.0000 </r>
       <r>    5.9641    1.0000 </r>
       <r>    5.9641    1.0000 </r>
       <r>    6.7814    1.0000 </r>
       <r>    6.7814    1.0000 </r>
       <r>    9.3142   -0.0000 </r>
       <r>    9.3142   -0.0000 </r>
       <r>   10.3779    0.0000 </r>
       <r>   10.3779    0.0000 </r>
       <r>   12.7694    0.0000 </r>
       <r>   13.5377    0.0000 </r>
      </set>
      <set comment="kpoint 63">
       <r>   -0.8389    1.0000 </r>
       <r>   -0.0151    1.0000 </r>
       <r>    4.6961    1.0000 </r>
       <r>    5.4696    1.0000 </r>
       <r>    6.2221    1.0000 </r>
       <r>    6.9870    1.0000 </r>
       <r>    9.6144    0.0000 </r>
       <r>   10.3029    0.0000 </r>
       <r>   11.2515    0.0000 </r>
       <r>   11.5212    0.0000 </r>
       <r>   11.9271    0.0000 </r>
       <r>   12.2925    0.0000 </r>
      </set>
      <set comment="kpoint 64">
       <r>   -0.4712    1.0000 </r>
       <r>    0.3505    1.0000 </r>
       <r>    3.5048    1.0000 </r>
       <r>    4.3004    1.0000 </r>
       <r>    6.5565    1.0000 </r>
       <r>    7.3356    1.0000 </r>
       <r>    9.9820    0.0000 </r>
       <r>   10.3663    0.0000 </r>
       <r>   10.7401    0.0000 </r>
       <r>   11.1405    0.0000 </r>
       <r>   12.9824    0.0000 </r>
       <r>   13.6896    0.0000 </r>
      </set>
      <set comment="kpoint 65">
       <r>    0.0421    1.0000 </r>
       <r>    0.8607    1.0000 </r>
       <r>    2.4349    1.0000 </r>
       <r>    3.2389    1.0000 </r>
       <r>    7.0432    1.0000 </r>
       <r>    7.8237    1.0000 </r>
       <r>    9.3346   -0.0000 </r>
       <r>   10.1112    0.0000 </r>
       <r>   10.4751    0.0000 </r>
       <r>   11.2418    0.0000 </r>
       <r>   12.7190    0.0000 </r>
       <r>   13.4771    0.0000 </r>
      </set>
      <set comment="kpoint 66">
       <r>    0.6992    1.0000 </r>
       <r>    1.4979    1.0000 </r>
       <r>    1.5140    1.0000 </r>
       <r>    2.3080    1.0000 </r>
       <r>    7.6701    1.0000 </r>
       <r>    8.4347   -0.0000 </r>
       <r>    8.4500   -0.0000 </r>
       <r>    9.2132   -0.0000 </r>
       <r>   11.0987    0.0000 </r>
       <r>   11.8495    0.0000 </r>
       <r>   11.8650    0.0000 </r>
       <r>   12.6123    0.0000 </r>
      </set>
      <set comment="kpoint 67">
       <r>   -2.5063    1.0000 </r>
       <r>    3.1003    1.0000 </r>
       <r>    3.1003    1.0000 </r>
       <r>    5.7914    1.0000 </r>
       <r>    7.1716    1.0000 </r>
       <r>    8.5741   -0.0000 </r>
       <r>    9.4841    0.0000 </r>
       <r>    9.4841    0.0000 </r>
       <r>   11.0808    0.0000 </r>
       <r>   11.0808    0.0000 </r>
       <r>   12.5917    0.0000 </r>
       <r>   12.5917    0.0000 </r>
      </set>
      <set comment="kpoint 68">
       <r>   -2.1342    1.0000 </r>
       <r>    1.8903    1.0000 </r>
       <r>    3.4570    1.0000 </r>
       <r>    6.1336    1.0000 </r>
       <r>    7.1645    1.0000 </r>
       <r>    7.7783    1.0000 </r>
       <r>    9.7949    0.0000 </r>
       <r>    9.9105    0.0000 </r>
       <r>   11.3145    0.0000 </r>
       <r>   11.4254    0.0000 </r>
       <r>   11.5676    0.0000 </r>
       <r>   12.9505    0.0000 </r>
      </set>
      <set comment="kpoint 69">
       <r>   -1.6148    1.0000 </r>
       <r>    0.8064    1.0000 </r>
       <r>    3.9548    1.0000 </r>
       <r>    6.2592    1.0000 </r>
       <r>    6.6130    1.0000 </r>
       <r>    8.1391   -0.0088 </r>
       <r>    8.8785   -0.0000 </r>
       <r>   10.0284    0.0000 </r>
       <r>   10.8205    0.0000 </r>
       <r>   11.9074    0.0000 </r>
       <r>   12.6467    0.0000 </r>
       <r>   13.0673    0.0000 </r>
      </set>
      <set comment="kpoint 70">
       <r>   -0.9500    1.0000 </r>
       <r>   -0.1419    1.0000 </r>
       <r>    4.5916    1.0000 </r>
       <r>    5.3635    1.0000 </r>
       <r>    7.2301    1.0000 </r>
       <r>    7.9852    1.0331 </r>
       <r>    8.7508   -0.0000 </r>
       <r>    9.4737    0.0000 </r>
       <r>   11.1003    0.0000 </r>
       <r>   11.8007    0.0000 </r>
       <r>   12.5263    0.0000 </r>
       <r>   13.2815    0.0000 </r>
      </set>
      <set comment="kpoint 71">
       <r>   -2.4303    1.0000 </r>
       <r>    3.1731    1.0000 </r>
       <r>    3.1731    1.0000 </r>
       <r>    4.8210    1.0000 </r>
       <r>    8.1871   -0.0001 </r>
       <r>    8.7313   -0.0000 </r>
       <r>    9.5185    0.0000 </r>
       <r>    9.5185    0.0000 </r>
       <r>   10.2352    0.0000 </r>
       <r>   10.2352    0.0000 </r>
       <r>   13.5443    0.0000 </r>
       <r>   13.5443    0.0000 </r>
      </set>
      <set comment="kpoint 72">
       <r>   -2.0584    1.0000 </r>
       <r>    1.9639    1.0000 </r>
       <r>    3.5296    1.0000 </r>
       <r>    5.1692    1.0000 </r>
       <r>    7.3838    1.0000 </r>
       <r>    8.7253   -0.0000 </r>
       <r>    8.9767   -0.0000 </r>
       <r>    9.9540    0.0000 </r>
       <r>   10.4880    0.0000 </r>
       <r>   11.4591    0.0000 </r>
       <r>   12.5265    0.0000 </r>
       <r>   13.6315    0.0000 </r>
      </set>
      <set comment="kpoint 73">
       <r>   -1.5393    1.0000 </r>
       <r>    0.8806    1.0000 </r>
       <r>    4.0269    1.0000 </r>
       <r>    5.6426    1.0000 </r>
       <r>    6.3790    1.0000 </r>
       <r>    7.9665    1.0285 </r>
       <r>    9.1896   -0.0000 </r>
       <r>   10.3630    0.0000 </r>
       <r>   10.9934    0.0000 </r>
       <r>   11.5930    0.0000 </r>
       <r>   12.7183    0.0000 </r>
       <r>   13.2606    0.0000 </r>
      </set>
      <set comment="kpoint 74">
       <r>   -0.8748    1.0000 </r>
       <r>   -0.0672    1.0000 </r>
       <r>    4.6622    1.0000 </r>
       <r>    5.4244    1.0000 </r>
       <r>    6.3189    1.0000 </r>
       <r>    7.0713    1.0000 </r>
       <r>    9.7927    0.0000 </r>
       <r>   10.4347    0.0000 </r>
       <r>   11.2530    0.0000 </r>
       <r>   11.6176    0.0000 </r>
       <r>   11.8809    0.0000 </r>
       <r>   12.3735    0.0000 </r>
      </set>
      <set comment="kpoint 75">
       <r>   -2.2025    1.0000 </r>
       <r>    3.3914    1.0000 </r>
       <r>    3.3914    1.0000 </r>
       <r>    3.5015    1.0000 </r>
       <r>    8.7663   -0.0000 </r>
       <r>    8.8591   -0.0000 </r>
       <r>    8.8591   -0.0000 </r>
       <r>    9.8482    0.0000 </r>
       <r>    9.8482    0.0000 </r>
       <r>   10.0776    0.0000 </r>
       <r>   14.1638    0.0000 </r>
       <r>   14.3725    0.0000 </r>
      </set>
      <set comment="kpoint 76">
       <r>   -1.8311    1.0000 </r>
       <r>    2.1845    1.0000 </r>
       <r>    3.7470    1.0000 </r>
       <r>    3.8566    1.0000 </r>
       <r>    7.6214    1.0000 </r>
       <r>    7.7257    1.0000 </r>
       <r>    9.2389   -0.0000 </r>
       <r>   10.1654    0.0000 </r>
       <r>   10.4047    0.0000 </r>
       <r>   11.6647    0.0000 </r>
       <r>   13.0269    0.0000 </r>
       <r>   13.8370    0.0000 </r>
      </set>
      <set comment="kpoint 77">
       <r>   -1.3130    1.0000 </r>
       <r>    1.1031    1.0000 </r>
       <r>    4.2421    1.0000 </r>
       <r>    4.3507    1.0000 </r>
       <r>    6.5862    1.0000 </r>
       <r>    6.6923    1.0000 </r>
       <r>    9.7316    0.0000 </r>
       <r>   10.6332    0.0000 </r>
       <r>   10.8688    0.0000 </r>
       <r>   12.0078    0.0000 </r>
       <r>   12.9371    0.0000 </r>
       <r>   13.1729    0.0000 </r>
      </set>
      <set comment="kpoint 78">
       <r>   -0.6495    1.0000 </r>
       <r>    0.1569    1.0000 </r>
       <r>    4.8658    1.0000 </r>
       <r>    4.9676    1.0000 </r>
       <r>    5.6961    1.0000 </r>
       <r>    5.7971    1.0000 </r>
       <r>   10.3571    0.0000 </r>
       <r>   11.1165    0.0000 </r>
       <r>   11.2024    0.0000 </r>
       <r>   11.3898    0.0000 </r>
       <r>   12.1762    0.0000 </r>
       <r>   12.3637    0.0000 </r>
      </set>
      <set comment="kpoint 79">
       <r>   -1.8236    1.0000 </r>
       <r>    2.2718    1.0000 </r>
       <r>    3.7541    1.0000 </r>
       <r>    3.7541    1.0000 </r>
       <r>    7.7032    1.0000 </r>
       <r>    7.7032    1.0000 </r>
       <r>    9.1421   -0.0000 </r>
       <r>   10.1720    0.0000 </r>
       <r>   10.1720    0.0000 </r>
       <r>   11.9386    0.0000 </r>
       <r>   13.0050    0.0000 </r>
       <r>   13.9336    0.0000 </r>
      </set>
      <set comment="kpoint 80">
       <r>   -1.4533    1.0000 </r>
       <r>    2.5514    1.0000 </r>
       <r>    2.6312    1.0000 </r>
       <r>    4.1074    1.0000 </r>
       <r>    6.5407    1.0000 </r>
       <r>    7.9833    1.0344 </r>
       <r>    8.0594    0.2060 </r>
       <r>   10.5180    0.0000 </r>
       <r>   11.8615    0.0000 </r>
       <r>   12.0031    0.0000 </r>
       <r>   12.2689    0.0000 </r>
       <r>   14.1811    0.0000 </r>
      </set>
      <set comment="kpoint 81">
       <r>   -0.9365    1.0000 </r>
       <r>    1.4732    1.0000 </r>
       <r>    3.1324    1.0000 </r>
       <r>    4.5906    1.0000 </r>
       <r>    5.5066    1.0000 </r>
       <r>    6.9437    1.0000 </r>
       <r>    8.5503   -0.0000 </r>
       <r>   10.8368    0.0000 </r>
       <r>   10.9981    0.0000 </r>
       <r>   12.6581    0.0000 </r>
       <r>   13.3582    0.0000 </r>
       <r>   13.9416    0.0000 </r>
      </set>
      <set comment="kpoint 82">
       <r>   -0.2748    1.0000 </r>
       <r>    0.5295    1.0000 </r>
       <r>    3.7726    1.0000 </r>
       <r>    4.5358    1.0000 </r>
       <r>    5.2804    1.0000 </r>
       <r>    6.0365    1.0000 </r>
       <r>    9.1777   -0.0000 </r>
       <r>    9.9406    0.0000 </r>
       <r>   11.6051    0.0000 </r>
       <r>   12.3104    0.0000 </r>
       <r>   13.4558    0.0000 </r>
       <r>   14.1341    0.0000 </r>
      </set>
      <set comment="kpoint 83">
       <r>   -1.2949    1.0000 </r>
       <r>    1.1693    1.0000 </r>
       <r>    4.2591    1.0000 </r>
       <r>    4.2591    1.0000 </r>
       <r>    6.6487    1.0000 </r>
       <r>    6.6487    1.0000 </r>
       <r>    9.6434    0.0000 </r>
       <r>   10.6479    0.0000 </r>
       <r>   10.6479    0.0000 </r>
       <r>   11.9655    0.0000 </r>
       <r>   13.0006    0.0000 </r>
       <r>   13.0006    0.0000 </r>
      </set>
      <set comment="kpoint 84">
       <r>   -0.9260    1.0000 </r>
       <r>    1.5318    1.0000 </r>
       <r>    3.0632    1.0000 </r>
       <r>    4.5998    1.0000 </r>
       <r>    5.4863    1.0000 </r>
       <r>    6.9997    1.0000 </r>
       <r>    8.4837   -0.0000 </r>
       <r>   10.8164    0.0000 </r>
       <r>   11.0075    0.0000 </r>
       <r>   12.4365    0.0000 </r>
       <r>   13.3815    0.0000 </r>
       <r>   14.2086    0.0000 </r>
      </set>
      <set comment="kpoint 85">
       <r>   -0.4111    1.0000 </r>
       <r>    1.9896    1.0000 </r>
       <r>    2.0377    1.0000 </r>
       <r>    4.3776    1.0000 </r>
       <r>    5.1478    1.0000 </r>
       <r>    7.4444    1.0000 </r>
       <r>    7.4907    1.0000 </r>
       <r>    9.7865    0.0000 </r>
       <r>   11.4927    0.0000 </r>
       <r>   13.6667    0.0000 </r>
       <r>   13.6955    0.0000 </r>
       <r>   14.5463    0.0000 </r>
      </set>
      <set comment="kpoint 86">
       <r>    0.2482    1.0000 </r>
       <r>    1.0494    1.0000 </r>
       <r>    2.6851    1.0000 </r>
       <r>    3.4704    1.0000 </r>
       <r>    5.7656    1.0000 </r>
       <r>    6.5364    1.0000 </r>
       <r>    8.1201   -0.0235 </r>
       <r>    8.8863   -0.0000 </r>
       <r>   12.1060    0.0000 </r>
       <r>   12.8398    0.0000 </r>
       <r>   14.3459    0.0000 </r>
       <r>   15.0776    0.0000 </r>
      </set>
      <set comment="kpoint 87">
       <r>   -0.6181    1.0000 </r>
       <r>    0.2043    1.0000 </r>
       <r>    4.8933    1.0000 </r>
       <r>    4.8933    1.0000 </r>
       <r>    5.7370    1.0000 </r>
       <r>    5.7370    1.0000 </r>
       <r>   10.2813    0.0000 </r>
       <r>   11.0561    0.0000 </r>
       <r>   11.2130    0.0000 </r>
       <r>   11.2130    0.0000 </r>
       <r>   12.1877    0.0000 </r>
       <r>   12.1877    0.0000 </r>
      </set>
      <set comment="kpoint 88">
       <r>   -0.2510    1.0000 </r>
       <r>    0.5694    1.0000 </r>
       <r>    3.7170    1.0000 </r>
       <r>    4.4982    1.0000 </r>
       <r>    5.3010    1.0000 </r>
       <r>    6.0744    1.0000 </r>
       <r>    9.1238   -0.0000 </r>
       <r>    9.9022    0.0000 </r>
       <r>   11.6253    0.0000 </r>
       <r>   12.3269    0.0000 </r>
       <r>   13.2344    0.0000 </r>
       <r>   13.9127    0.0000 </r>
      </set>
      <set comment="kpoint 89">
       <r>    0.2615    1.0000 </r>
       <r>    1.0789    1.0000 </r>
       <r>    2.6503    1.0000 </r>
       <r>    3.4518    1.0000 </r>
       <r>    5.7783    1.0000 </r>
       <r>    6.5646    1.0000 </r>
       <r>    8.0866   -0.0146 </r>
       <r>    8.8682   -0.0000 </r>
       <r>   12.1183    0.0000 </r>
       <r>   12.8662    0.0000 </r>
       <r>   14.3111    0.0000 </r>
       <r>   15.0576    0.0000 </r>
      </set>
      <set comment="kpoint 90">
       <r>    0.9176    1.0000 </r>
       <r>    1.7151    1.0000 </r>
       <r>    1.7312    1.0000 </r>
       <r>    2.5236    1.0000 </r>
       <r>    6.4094    1.0000 </r>
       <r>    7.1801    1.0000 </r>
       <r>    7.1956    1.0000 </r>
       <r>    7.9644    1.0266 </r>
       <r>   12.7331    0.0000 </r>
       <r>   13.4689    0.0000 </r>
       <r>   13.4846    0.0000 </r>
       <r>   14.2182    0.0000 </r>
      </set>
      <set comment="kpoint 91">
       <r>   -1.7630    1.0000 </r>
       <r>    2.2507    1.0000 </r>
       <r>    2.2507    1.0000 </r>
       <r>    6.1289    1.0000 </r>
       <r>    6.4760    1.0000 </r>
       <r>    8.0051    0.9632 </r>
       <r>   10.2547    0.0000 </r>
       <r>   10.2547    0.0000 </r>
       <r>   11.4182    0.0000 </r>
       <r>   11.4182    0.0000 </r>
       <r>   12.1349    0.0000 </r>
       <r>   12.1349    0.0000 </r>
      </set>
      <set comment="kpoint 92">
       <r>   -1.2451    1.0000 </r>
       <r>    1.1698    1.0000 </r>
       <r>    2.7538    1.0000 </r>
       <r>    5.0947    1.0000 </r>
       <r>    6.9558    1.0000 </r>
       <r>    8.4892   -0.0000 </r>
       <r>    9.2223   -0.0000 </r>
       <r>   10.7284    0.0000 </r>
       <r>   10.7364    0.0000 </r>
       <r>   12.2226    0.0000 </r>
       <r>   12.3070    0.0000 </r>
       <r>   13.0046    0.0000 </r>
      </set>
      <set comment="kpoint 93">
       <r>   -0.5820    1.0000 </r>
       <r>    0.2240    1.0000 </r>
       <r>    3.3977    1.0000 </r>
       <r>    4.1797    1.0000 </r>
       <r>    7.5732    1.0000 </r>
       <r>    8.3286   -0.0000 </r>
       <r>    9.1194   -0.0000 </r>
       <r>    9.8766    0.0000 </r>
       <r>   11.3556    0.0000 </r>
       <r>   12.1118    0.0000 </r>
       <r>   12.8695    0.0000 </r>
       <r>   12.8723    0.0000 </r>
      </set>
      <set comment="kpoint 94">
       <r>   -1.6874    1.0000 </r>
       <r>    2.3242    1.0000 </r>
       <r>    2.3242    1.0000 </r>
       <r>    5.5030    1.0000 </r>
       <r>    6.2498    1.0000 </r>
       <r>    9.0598   -0.0000 </r>
       <r>    9.3491   -0.0000 </r>
       <r>    9.3491   -0.0000 </r>
       <r>   11.7384    0.0000 </r>
       <r>   11.7384    0.0000 </r>
       <r>   12.9017    0.0000 </r>
       <r>   12.9021    0.0000 </r>
      </set>
      <set comment="kpoint 95">
       <r>   -1.1697    1.0000 </r>
       <r>    1.2439    1.0000 </r>
       <r>    2.8269    1.0000 </r>
       <r>    5.1556    1.0000 </r>
       <r>    6.0414    1.0000 </r>
       <r>    8.3196   -0.0000 </r>
       <r>    9.5447    0.0000 </r>
       <r>    9.8394    0.0000 </r>
       <r>   11.6819    0.0000 </r>
       <r>   12.1132    0.0000 </r>
       <r>   12.4490    0.0000 </r>
       <r>   13.1804    0.0000 </r>
      </set>
      <set comment="kpoint 96">
       <r>   -0.5070    1.0000 </r>
       <r>    0.2986    1.0000 </r>
       <r>    3.4703    1.0000 </r>
       <r>    4.2507    1.0000 </r>
       <r>    6.6568    1.0000 </r>
       <r>    7.4200    1.0000 </r>
       <r>   10.1646    0.0000 </r>
       <r>   10.4633    0.0000 </r>
       <r>   10.9044    0.0000 </r>
       <r>   11.2218    0.0000 </r>
       <r>   12.9501    0.0000 </r>
       <r>   13.6501    0.0000 </r>
      </set>
      <set comment="kpoint 97">
       <r>   -1.4608    1.0000 </r>
       <r>    2.5442    1.0000 </r>
       <r>    2.5442    1.0000 </r>
       <r>    4.2091    1.0000 </r>
       <r>    6.4575    1.0000 </r>
       <r>    8.0820    0.0033 </r>
       <r>    8.0820    0.0033 </r>
       <r>   10.7526    0.0000 </r>
       <r>   11.8834    0.0000 </r>
       <r>   11.9973    0.0000 </r>
       <r>   11.9973    0.0000 </r>
       <r>   14.4085    0.0000 </r>
      </set>
      <set comment="kpoint 98">
       <r>   -0.9440    1.0000 </r>
       <r>    1.4658    1.0000 </r>
       <r>    3.0459    1.0000 </r>
       <r>    4.6866    1.0000 </r>
       <r>    5.4276    1.0000 </r>
[...]
       <r>    1.1359    1.0000 </r>
       <r>    1.9480    1.0000 </r>
       <r>    3.4979    1.0000 </r>
       <r>    3.4979    1.0000 </r>
       <r>    4.3385    1.0000 </r>
       <r>    4.3385    1.0000 </r>
       <r>    5.8669    1.0000 </r>
       <r>    6.6570    1.0000 </r>
       <r>   15.8168    0.0000 </r>
       <r>   15.8168    0.0000 </r>
       <r>   16.5440    0.0000 </r>
       <r>   16.5440    0.0000 </r>
      </set>
      <set comment="kpoint 120">
       <r>    1.7879    1.0000 </r>
       <r>    2.5792    1.0000 </r>
       <r>    2.5952    1.0000 </r>
       <r>    3.3722    1.0000 </r>
       <r>    4.1804    1.0000 </r>
       <r>    4.9503    1.0000 </r>
       <r>    4.9659    1.0000 </r>
       <r>    5.7428    1.0000 </r>
       <r>   16.4104    0.0000 </r>
       <r>   17.0374    0.0000 </r>
       <r>   17.0655    0.0000 </r>
       <r>   17.7202    0.0000 </r>
      </set>
      <set comment="kpoint 121">
       <r>    0.5893    1.0000 </r>
       <r>    1.3887    1.0000 </r>
       <r>    1.3887    1.0000 </r>
       <r>    2.1834    1.0000 </r>
       <r>    8.6720   -0.0000 </r>
       <r>    9.4283    0.0000 </r>
       <r>    9.4283    0.0000 </r>
       <r>   10.1850    0.0000 </r>
       <r>   10.2529    0.0000 </r>
       <r>   11.0136    0.0000 </r>
       <r>   11.0136    0.0000 </r>
       <r>   11.7694    0.0000 </r>
      </set>
      <set comment="kpoint 122">
       <r>    0.6637    1.0000 </r>
       <r>    1.4626    1.0000 </r>
       <r>    1.4626    1.0000 </r>
       <r>    2.2569    1.0000 </r>
       <r>    7.7696    1.0000 </r>
       <r>    8.5334   -0.0000 </r>
       <r>    8.5334   -0.0000 </r>
       <r>    9.2959   -0.0000 </r>
       <r>   11.2828    0.0000 </r>
       <r>   12.0335    0.0000 </r>
       <r>   12.0335    0.0000 </r>
       <r>   12.7813    0.0000 </r>
      </set>
      <set comment="kpoint 123">
       <r>    0.8867    1.0000 </r>
       <r>    1.6843    1.0000 </r>
       <r>    1.6843    1.0000 </r>
       <r>    2.4771    1.0000 </r>
       <r>    6.4871    1.0000 </r>
       <r>    7.2575    1.0000 </r>
       <r>    7.2575    1.0000 </r>
       <r>    8.0260    0.7363 </r>
       <r>   12.9449    0.0000 </r>
       <r>   13.6798    0.0000 </r>
       <r>   13.6798    0.0000 </r>
       <r>   14.4134    0.0000 </r>
      </set>
      <set comment="kpoint 124">
       <r>    1.2574    1.0000 </r>
       <r>    2.0528    1.0000 </r>
       <r>    2.0528    1.0000 </r>
       <r>    2.8425    1.0000 </r>
       <r>    5.2843    1.0000 </r>
       <r>    6.0591    1.0000 </r>
       <r>    6.0591    1.0000 </r>
       <r>    6.8324    1.0000 </r>
       <r>   14.7694    0.0000 </r>
       <r>   15.4739    0.0000 </r>
       <r>   15.4739    0.0000 </r>
       <r>   16.1823    0.0000 </r>
      </set>
      <set comment="kpoint 125">
       <r>    1.7747    1.0000 </r>
       <r>    2.5662    1.0000 </r>
       <r>    2.5662    1.0000 </r>
       <r>    3.3446    1.0000 </r>
       <r>    4.2135    1.0000 </r>
       <r>    4.9844    1.0000 </r>
       <r>    4.9844    1.0000 </r>
       <r>    5.7612    1.0000 </r>
       <r>   16.6814    0.0000 </r>
       <r>   17.2932    0.0000 </r>
       <r>   17.2932    0.0000 </r>
       <r>   17.7822    0.0000 </r>
      </set>
      <set comment="kpoint 126">
       <r>    2.4360    1.0000 </r>
       <r>    3.2153    1.0000 </r>
       <r>    3.2153    1.0000 </r>
       <r>    3.2306    1.0000 </r>
       <r>    4.0379    1.0000 </r>
       <r>    4.0531    1.0000 </r>
       <r>    4.0531    1.0000 </r>
       <r>    4.8251    1.0000 </r>
       <r>   18.2978    0.0000 </r>
       <r>   18.2991    0.0000 </r>
       <r>   18.4503    0.0000 </r>
       <r>   18.5881    0.0000 </r>
      </set>
     </set>
    </set>
   </array>
  </eigenvalues>
  <separator name="orbital magnetization" >
   <v name="MAGDIPOLOUT">      0.00000000      0.00000000      0.00000000</v>
  </separator>
  <dos>
   <i name="efermi">      8.04060310 </i>
   <total>
    <array>
     <dimension dim="1">gridpoints</dimension>
     <dimension dim="2">spin</dimension>
     <field>energy</field>
     <field>total</field>
     <field>integrated</field>
     <set>
      <set comment="spin 1">
       <r>    -4.1883     0.0000     0.0000 </r>
       <r>    -4.1088     0.0000     0.0000 </r>
       <r>    -4.0293     0.0000     0.0000 </r>
       <r>    -3.9497     0.0000     0.0000 </r>
       <r>    -3.8702     0.0000     0.0000 </r>
       <r>    -3.7906     0.0000     0.0000 </r>
       <r>    -3.7111     0.0000     0.0000 </r>
       <r>    -3.6316     0.0000     0.0000 </r>
       <r>    -3.5520    -0.0000    -0.0000 </r>
       <r>    -3.4725    -0.0000    -0.0000 </r>
       <r>    -3.3930    -0.0000    -0.0000 </r>
       <r>    -3.3134    -0.0000    -0.0000 </r>
       <r>    -3.2339    -0.0000    -0.0000 </r>
       <r>    -3.1544    -0.0006    -0.0000 </r>
       <r>    -3.0748     0.0157     0.0012 </r>
       <r>    -2.9953     0.1108     0.0100 </r>
       <r>    -2.9157     0.2308     0.0284 </r>
       <r>    -2.8362     0.1576     0.0409 </r>
       <r>    -2.7567     0.1486     0.0527 </r>
       <r>    -2.6771     0.4861     0.0914 </r>
       <r>    -2.5976     0.3938     0.1227 </r>
       <r>    -2.5181     0.0361     0.1256 </r>
       <r>    -2.4385     0.3570     0.1540 </r>
       <r>    -2.3590     0.5738     0.1996 </r>
       <r>    -2.2795     0.4880     0.2384 </r>
       <r>    -2.1999     0.3132     0.2633 </r>
       <r>    -2.1204     0.3253     0.2892 </r>
       <r>    -2.0408     0.8358     0.3557 </r>
       <r>    -1.9613     0.2789     0.3779 </r>
       <r>    -1.8818     0.0601     0.3826 </r>
       <r>    -1.8022     0.8290     0.4486 </r>
       <r>    -1.7227     0.7481     0.5081 </r>
       <r>    -1.6432     0.5070     0.5484 </r>
       <r>    -1.5636     0.5068     0.5887 </r>
       <r>    -1.4841     0.9005     0.6603 </r>
       <r>    -1.4045     0.4157     0.6934 </r>
       <r>    -1.3250     0.0870     0.7003 </r>
       <r>    -1.2455     0.5216     0.7418 </r>
       <r>    -1.1659     0.9316     0.8159 </r>
       <r>    -1.0864     1.1522     0.9075 </r>
       <r>    -1.0069     0.2580     0.9281 </r>
       <r>    -0.9273     0.8574     0.9962 </r>
       <r>    -0.8478     1.1822     1.0903 </r>
       <r>    -0.7683     0.2613     1.1111 </r>
       <r>    -0.6887     0.1761     1.1251 </r>
       <r>    -0.6092     0.8555     1.1931 </r>
       <r>    -0.5296     0.9970     1.2724 </r>
       <r>    -0.4501     0.9196     1.3455 </r>
       <r>    -0.3706     0.6386     1.3963 </r>
       <r>    -0.2910     0.6576     1.4486 </r>
       <r>    -0.2115     1.0699     1.5337 </r>
       <r>    -0.1320     0.1537     1.5460 </r>
       <r>    -0.0524     1.1058     1.6339 </r>
       <r>     0.0271     1.5012     1.7533 </r>
       <r>     0.1066     0.7082     1.8096 </r>
       <r>     0.1862     0.4549     1.8458 </r>
       <r>     0.2657     1.2099     1.9421 </r>
       <r>     0.3453     1.0500     2.0256 </r>
       <r>     0.4248     0.1733     2.0394 </r>
       <r>     0.5043     0.2499     2.0592 </r>
       <r>     0.5839     1.0676     2.1441 </r>
       <r>     0.6634     1.6217     2.2731 </r>
       <r>     0.7429     0.7944     2.3363 </r>
       <r>     0.8225     0.8856     2.4068 </r>
       <r>     0.9020     1.7162     2.5433 </r>
       <r>     0.9815     0.9355     2.6177 </r>
       <r>     1.0611     0.5541     2.6617 </r>
       <r>     1.1406     1.0288     2.7436 </r>
       <r>     1.2202     0.6310     2.7938 </r>
       <r>     1.2997     1.1587     2.8859 </r>
       <r>     1.3792     0.3674     2.9151 </r>
       <r>     1.4588     1.4868     3.0334 </r>
       <r>     1.5383     1.4601     3.1495 </r>
       <r>     1.6178     0.1636     3.1625 </r>
       <r>     1.6974     0.7667     3.2235 </r>
       <r>     1.7769     1.9633     3.3797 </r>
       <r>     1.8565     1.2066     3.4756 </r>
       <r>     1.9360     0.8558     3.5437 </r>
       <r>     2.0155     1.5058     3.6635 </r>
       <r>     2.0951     1.2977     3.7667 </r>
       <r>     2.1746     0.3159     3.7918 </r>
       <r>     2.2541     0.5825     3.8381 </r>
       <r>     2.3337     1.3676     3.9469 </r>
       <r>     2.4132     1.8224     4.0919 </r>
       <r>     2.4927     1.1038     4.1796 </r>
       <r>     2.5723     1.2183     4.2766 </r>
       <r>     2.6518     1.3936     4.3874 </r>
       <r>     2.7314     0.5060     4.4276 </r>
       <r>     2.8109     0.3776     4.4577 </r>
       <r>     2.8904     1.6866     4.5918 </r>
       <r>     2.9700     1.2368     4.6902 </r>
       <r>     3.0495     1.3260     4.7956 </r>
       <r>     3.1290     1.0977     4.8830 </r>
       <r>     3.2086     1.5659     5.0075 </r>
       <r>     3.2881     1.2517     5.1071 </r>
       <r>     3.3676     0.4541     5.1432 </r>
       <r>     3.4472     1.8709     5.2920 </r>
       <r>     3.5267     2.8105     5.5155 </r>
       <r>     3.6063     1.0940     5.6025 </r>
       <r>     3.6858     0.4051     5.6348 </r>
       <r>     3.7653     1.2403     5.7334 </r>
       <r>     3.8449     1.1354     5.8237 </r>
       <r>     3.9244     0.4614     5.8604 </r>
       <r>     4.0039     0.5260     5.9022 </r>
       <r>     4.0835     1.8477     6.0492 </r>
       <r>     4.1630     1.4635     6.1656 </r>
       <r>     4.2426     1.7042     6.3011 </r>
       <r>     4.3221     1.8546     6.4487 </r>
       <r>     4.4016     1.8017     6.5920 </r>
       <r>     4.4812     0.9488     6.6674 </r>
       <r>     4.5607     0.9708     6.7446 </r>
       <r>     4.6402     1.8423     6.8912 </r>
       <r>     4.7198     1.5780     7.0167 </r>
       <r>     4.7993     1.0771     7.1023 </r>
       <r>     4.8788     1.5185     7.2231 </r>
       <r>     4.9584     1.6245     7.3523 </r>
       <r>     5.0379     1.2872     7.4547 </r>
       <r>     5.1175     0.4797     7.4928 </r>
       <r>     5.1970     1.3594     7.6010 </r>
       <r>     5.2765     2.0655     7.7653 </r>
       <r>     5.3561     1.6748     7.8985 </r>
       <r>     5.4356     2.3883     8.0884 </r>
       <r>     5.5151     2.0847     8.2542 </r>
       <r>     5.5947     0.9315     8.3283 </r>
       <r>     5.6742     0.4583     8.3648 </r>
       <r>     5.7537     1.1814     8.4587 </r>
       <r>     5.8333     1.9869     8.6168 </r>
       <r>     5.9128     1.4983     8.7359 </r>
       <r>     5.9924     1.5279     8.8575 </r>
       <r>     6.0719     1.9241     9.0105 </r>
       <r>     6.1514     0.7684     9.0716 </r>
       <r>     6.2310     0.9074     9.1438 </r>
       <r>     6.3105     1.3831     9.2538 </r>
       <r>     6.3900     1.7776     9.3952 </r>
       <r>     6.4696     1.3505     9.5026 </r>
       <r>     6.5491     1.8171     9.6471 </r>
       <r>     6.6286     1.5756     9.7724 </r>
       <r>     6.7082     1.7113     9.9086 </r>
       <r>     6.7877     1.2060    10.0045 </r>
       <r>     6.8673     1.3663    10.1131 </r>
       <r>     6.9468     1.6449    10.2440 </r>
       <r>     7.0263     2.1119    10.4120 </r>
       <r>     7.1059     1.4043    10.5236 </r>
       <r>     7.1854     1.4379    10.6380 </r>
       <r>     7.2649     0.7521    10.6978 </r>
       <r>     7.3445     1.0480    10.7812 </r>
       <r>     7.4240     1.2946    10.8842 </r>
       <r>     7.5036     1.7255    11.0214 </r>
       <r>     7.5831     0.9623    11.0979 </r>
       <r>     7.6626     1.5329    11.2199 </r>
       <r>     7.7422     2.5733    11.4245 </r>
       <r>     7.8217     1.7668    11.5650 </r>
       <r>     7.9012     1.9105    11.7170 </r>
       <r>     7.9808     2.0769    11.8822 </r>
       <r>     8.0603     1.9426    12.0367 </r>
       <r>     8.1398     1.6471    12.1677 </r>
       <r>     8.2194     1.7632    12.3079 </r>
       <r>     8.2989     0.8148    12.3727 </r>
       <r>     8.3785     1.1817    12.4667 </r>
       <r>     8.4580     0.5103    12.5073 </r>
       <r>     8.5375     1.6449    12.6382 </r>
       <r>     8.6171     1.9540    12.7936 </r>
       <r>     8.6966     1.1759    12.8871 </r>
       <r>     8.7761     2.6002    13.0939 </r>
       <r>     8.8557     2.8004    13.3166 </r>
       <r>     8.9352     2.3139    13.5007 </r>
       <r>     9.0147     1.6030    13.6282 </r>
       <r>     9.0943     0.3164    13.6533 </r>
       <r>     9.1738     1.0120    13.7338 </r>
       <r>     9.2534     1.6813    13.8676 </r>
       <r>     9.3329     2.3097    14.0513 </r>
       <r>     9.4124     1.9462    14.2061 </r>
       <r>     9.4920     1.3470    14.3132 </r>
       <r>     9.5715     1.4567    14.4291 </r>
       <r>     9.6510     1.4530    14.5446 </r>
       <r>     9.7306     1.8030    14.6880 </r>
       <r>     9.8101     2.0663    14.8524 </r>
       <r>     9.8897     2.0848    15.0182 </r>
       <r>     9.9692     2.1067    15.1858 </r>
       <r>    10.0487     1.7199    15.3225 </r>
       <r>    10.1283     1.0208    15.4037 </r>
       <r>    10.2078     2.6958    15.6181 </r>
       <r>    10.2873     2.1049    15.7856 </r>
       <r>    10.3669     1.7338    15.9235 </r>
       <r>    10.4464     2.5121    16.1233 </r>
       <r>    10.5259     1.8064    16.2669 </r>
       <r>    10.6055     0.8037    16.3309 </r>
       <r>    10.6850     1.1804    16.4248 </r>
       <r>    10.7646     1.4129    16.5371 </r>
       <r>    10.8441     1.2685    16.6380 </r>
       <r>    10.9236     1.7393    16.7764 </r>
       <r>    11.0032     1.2226    16.8736 </r>
       <r>    11.0827     2.0139    17.0338 </r>
       <r>    11.1622     2.7564    17.2530 </r>
       <r>    11.2418     3.0869    17.4985 </r>
       <r>    11.3213     2.1496    17.6695 </r>
       <r>    11.4008     1.7477    17.8085 </r>
       <r>    11.4804     2.8255    18.0333 </r>
       <r>    11.5599     1.1830    18.1273 </r>
       <r>    11.6395     1.9518    18.2826 </r>
       <r>    11.7190     1.1131    18.3711 </r>
       <r>    11.7985     1.3968    18.4822 </r>
       <r>    11.8781     1.8887    18.6324 </r>
       <r>    11.9576     1.5133    18.7528 </r>
       <r>    12.0371     1.9365    18.9068 </r>
       <r>    12.1167     3.1812    19.1598 </r>
       <r>    12.1962     2.4030    19.3510 </r>
       <r>    12.2757     1.7065    19.4867 </r>
       <r>    12.3553     2.9653    19.7226 </r>
       <r>    12.4348     2.2571    19.9021 </r>
       <r>    12.5144     1.6524    20.0335 </r>
       <r>    12.5939     0.7857    20.0960 </r>
       <r>    12.6734     1.2670    20.1968 </r>
       <r>    12.7530     2.1310    20.3663 </r>
       <r>    12.8325     1.9617    20.5223 </r>
       <r>    12.9120     2.1092    20.6900 </r>
       <r>    12.9916     2.1258    20.8591 </r>
       <r>    13.0711     2.1206    21.0278 </r>
       <r>    13.1507     1.5535    21.1514 </r>
       <r>    13.2302     2.4443    21.3458 </r>
       <r>    13.3097     2.2256    21.5228 </r>
       <r>    13.3893     1.8050    21.6663 </r>
       <r>    13.4688     1.6705    21.7992 </r>
       <r>    13.5483     1.6699    21.9320 </r>
       <r>    13.6279     1.1608    22.0243 </r>
       <r>    13.7074     2.2927    22.2067 </r>
       <r>    13.7869     0.8118    22.2713 </r>
       <r>    13.8665     1.1849    22.3655 </r>
       <r>    13.9460     1.6169    22.4941 </r>
       <r>    14.0256     0.5601    22.5387 </r>
       <r>    14.1051     0.0499    22.5426 </r>
       <r>    14.1846     0.8939    22.6137 </r>
       <r>    14.2642     0.9473    22.6891 </r>
       <r>    14.3437     1.5424    22.8117 </r>
       <r>    14.4232     0.6014    22.8596 </r>
       <r>    14.5028     0.5086    22.9000 </r>
       <r>    14.5823     1.3746    23.0094 </r>
       <r>    14.6618     0.9085    23.0816 </r>
       <r>    14.7414     0.1563    23.0941 </r>
       <r>    14.8209     0.7379    23.1527 </r>
       <r>    14.9005     0.1460    23.1644 </r>
       <r>    14.9800     0.1966    23.1800 </r>
       <r>    15.0595     0.8890    23.2507 </r>
       <r>    15.1391     0.6145    23.2996 </r>
       <r>    15.2186     0.2461    23.3192 </r>
       <r>    15.2981     0.8801    23.3892 </r>
       <r>    15.3777     0.0986    23.3970 </r>
       <r>    15.4572     0.4920    23.4361 </r>
       <r>    15.5368     0.8099    23.5005 </r>
       <r>    15.6163     0.0805    23.5070 </r>
       <r>    15.6958     0.1637    23.5200 </r>
       <r>    15.7754     0.3207    23.5455 </r>
       <r>    15.8549     0.5718    23.5910 </r>
       <r>    15.9344     0.0247    23.5929 </r>
       <r>    16.0140     0.7028    23.6488 </r>
       <r>    16.0935     0.7615    23.7094 </r>
       <r>    16.1730     0.0810    23.7158 </r>
       <r>    16.2526     0.1015    23.7239 </r>
       <r>    16.3321    -0.0122    23.7229 </r>
       <r>    16.4117     0.1626    23.7359 </r>
       <r>    16.4912     0.1978    23.7516 </r>
       <r>    16.5707     0.5302    23.7938 </r>
       <r>    16.6503     0.0319    23.7963 </r>
       <r>    16.7298     0.3018    23.8203 </r>
       <r>    16.8093     0.2994    23.8441 </r>
       <r>    16.8889    -0.0045    23.8438 </r>
       <r>    16.9684    -0.0130    23.8427 </r>
       <r>    17.0479     0.2836    23.8653 </r>
       <r>    17.1275     0.3487    23.8930 </r>
       <r>    17.2070    -0.0203    23.8914 </r>
       <r>    17.2866     0.1229    23.9012 </r>
       <r>    17.3661     0.1935    23.9166 </r>
       <r>    17.4456    -0.0089    23.9159 </r>
       <r>    17.5252    -0.0000    23.9159 </r>
       <r>    17.6047    -0.0008    23.9158 </r>
       <r>    17.6842     0.0096    23.9166 </r>
       <r>    17.7638     0.3271    23.9426 </r>
       <r>    17.8433     0.1232    23.9524 </r>
       <r>    17.9228    -0.0057    23.9519 </r>
       <r>    18.0024    -0.0000    23.9519 </r>
       <r>    18.0819    -0.0000    23.9519 </r>
       <r>    18.1615    -0.0001    23.9519 </r>
       <r>    18.2410    -0.0103    23.9511 </r>
       <r>    18.3205     0.2630    23.9720 </r>
       <r>    18.4001     0.0481    23.9758 </r>
       <r>    18.4796     0.1391    23.9869 </r>
       <r>    18.5591     0.0279    23.9891 </r>
       <r>    18.6387     0.1409    24.0003 </r>
       <r>    18.7182    -0.0039    24.0000 </r>
       <r>    18.7978    -0.0001    24.0000 </r>
       <r>    18.8773    -0.0000    24.0000 </r>
       <r>    18.9568    -0.0000    24.0000 </r>
       <r>    19.0364     0.0000    24.0000 </r>
       <r>    19.1159     0.0000    24.0000 </r>
       <r>    19.1954     0.0000    24.0000 </r>
       <r>    19.2750     0.0000    24.0000 </r>
       <r>    19.3545     0.0000    24.0000 </r>
       <r>    19.4340     0.0000    24.0000 </r>
       <r>    19.5136     0.0000    24.0000 </r>
       <r>    19.5931     0.0000    24.0000 </r>
       <r>    19.6727     0.0000    24.0000 </r>
      </set>
     </set>
    </array>
   </total>
  </dos>
 </calculation>
 <structure name="finalpos" >
  <crystal>
   <varray name="basis" >
    <v>       4.04336400       0.00000000       0.00000000 </v>
    <v>       0.00000000       4.00272600       0.00000000 </v>
    <v>       0.00000000       0.00000000       4.04336400 </v>
   </varray>
   <i name="volume">     65.43973655 </i>
   <varray name="rec_basis" >
    <v>       0.24731882       0.00000000       0.00000000 </v>
    <v>       0.00000000       0.24982974       0.00000000 </v>
    <v>       0.00000000       0.00000000       0.24731882 </v>
   </varray>
  </crystal>
  <varray name="positions" >
   <v>       0.00000000       0.00000000       0.00000000 </v>
   <v>       0.00000000       0.50000000       0.50000000 </v>
   <v>       0.50000000       0.00000000       0.50000000 </v>
   <v>       0.50000000       0.50000000       0.00000000 </v>
  </varray>
 </structure>
</modeling>
