<?xml version="1.0" encoding="ISO-8859-1"?>
<modeling>
 <generator>
  <i name="program" type="string">vasp </i>
  <i name="version" type="string">5.4.4.18Apr17-6-g9f103f2a35  </i>
  <i name="subversion" type="string">(build Jun 11 2017 21:30:58) complex            parallel </i>
  <i name="platform" type="string">LinuxIFC </i>
  <i name="date" type="string">2022 07 07 </i>
  <i name="time" type="string">18:38:59 </i>
 </generator>
 <incar>
  <i type="string" name="PREC">accurate</i>
  <i type="string" name="ALGO"> Normal</i>
  <i type="logical" name="ADDGRID"> T  </i>
  <i type="int" name="NELM">   100</i>
  <i type="int" name="NELMIN">     4</i>
  <i type="int" name="IBRION">    -1</i>
  <i name="EDIFF">      0.00005000</i>
  <i name="ENCUT">    520.00000000</i>
  <i type="logical" name="LREAL"> F  </i>
  <i type="int" name="ISMEAR">     1</i>
  <i name="SIGMA">      0.05000000</i>
  <i type="logical" name="LWAVE"> F  </i>
  <i type="logical" name="LCHARG"> F  </i>
  <i type="logical" name="LASPH"> T  </i>
  <v type="int" name="KPOINT_BSE">    -1     0     0     0</v>
  <i type="int" name="NELM">   100</i>
  <i type="logical" name="LASPH"> T  </i>
 </incar>
 <structure name="primitive_cell" >
  <crystal>
   <varray name="basis" >
    <v>       2.02168200       0.00000000       2.00136300 </v>
    <v>      -2.02168200       0.00000000       2.00136300 </v>
    <v>       0.00000000      -2.02168200      -2.00136300 </v>
   </varray>
   <i name="volume">     16.35993414 </i>
   <varray name="rec_basis" >
    <v>       0.24731882      -0.24731882       0.24982974 </v>
    <v>      -0.24731882      -0.24731882       0.24982974 </v>
    <v>       0.00000000      -0.49463763       0.00000000 </v>
   </varray>
  </crystal>
  <varray name="positions" >
   <v>       0.00000000       0.00000000       0.00000000 </v>
  </varray>
 </structure>
 <varray name="primitive_index" >
  <v type="int" >        1 </v>
 </varray>
 <kpoints>
  <generation param="Gamma">
   <v type="int" name="divisions">      11       11       11 </v>
   <v name="usershift">      0.00000000       0.00000000       0.00000000 </v>
   <v name="genvec1">      0.09090909       0.00000000       0.00000000 </v>
   <v name="genvec2">      0.00000000       0.09090909       0.00000000 </v>
   <v name="genvec3">      0.00000000       0.00000000       0.09090909 </v>
   <v name="shift">      0.00000000       0.00000000       0.00000000 </v>
  </generation>
  <varray name="kpointlist" >
   <v>       0.00000000       0.00000000       0.00000000 </v>
   <v>       0.09090909       0.00000000       0.00000000 </v>
   <v>       0.18181818       0.00000000       0.00000000 </v>
   <v>       0.27272727       0.00000000       0.00000000 </v>
   <v>       0.36363636       0.00000000       0.00000000 </v>
   <v>       0.45454545       0.00000000       0.00000000 </v>
   <v>       0.09090909       0.09090909       0.00000000 </v>
   <v>       0.18181818       0.09090909       0.00000000 </v>
   <v>       0.27272727       0.09090909       0.00000000 </v>
   <v>       0.36363636       0.09090909       0.00000000 </v>
   <v>       0.45454545       0.09090909       0.00000000 </v>
   <v>       0.18181818       0.18181818       0.00000000 </v>
   <v>       0.27272727       0.18181818       0.00000000 </v>
   <v>       0.36363636       0.18181818       0.00000000 </v>
   <v>       0.45454545       0.18181818       0.00000000 </v>
   <v>       0.27272727       0.27272727       0.00000000 </v>
   <v>       0.36363636       0.27272727       0.00000000 </v>
   <v>       0.45454545       0.27272727       0.00000000 </v>
   <v>       0.36363636       0.36363636       0.00000000 </v>
   <v>       0.45454545       0.36363636       0.00000000 </v>
   <v>       0.45454545       0.45454545       0.00000000 </v>
   <v>       0.00000000       0.00000000       0.09090909 </v>
   <v>       0.09090909       0.00000000       0.09090909 </v>
   <v>       0.18181818       0.00000000       0.09090909 </v>
   <v>       0.27272727       0.00000000       0.09090909 </v>
   <v>       0.36363636       0.00000000       0.09090909 </v>
   <v>       0.45454545       0.00000000       0.09090909 </v>
   <v>       0.09090909       0.09090909       0.09090909 </v>
   <v>       0.18181818       0.09090909       0.09090909 </v>
   <v>       0.27272727       0.09090909       0.09090909 </v>
   <v>       0.36363636       0.09090909       0.09090909 </v>
   <v>       0.45454545       0.09090909       0.09090909 </v>
   <v>       0.18181818       0.18181818       0.09090909 </v>
   <v>       0.27272727       0.18181818       0.09090909 </v>
   <v>       0.36363636       0.18181818       0.09090909 </v>
   <v>       0.45454545       0.18181818       0.09090909 </v>
   <v>       0.27272727       0.27272727       0.09090909 </v>
   <v>       0.36363636       0.27272727       0.09090909 </v>
   <v>       0.45454545       0.27272727       0.09090909 </v>
   <v>       0.36363636       0.36363636       0.09090909 </v>
   <v>       0.45454545       0.36363636       0.09090909 </v>
   <v>       0.45454545       0.45454545       0.09090909 </v>
   <v>       0.00000000       0.00000000       0.18181818 </v>
   <v>       0.09090909       0.00000000       0.18181818 </v>
   <v>       0.18181818       0.00000000       0.18181818 </v>
   <v>       0.27272727       0.00000000       0.18181818 </v>
   <v>       0.36363636       0.00000000       0.18181818 </v>
   <v>       0.45454545       0.00000000       0.18181818 </v>
   <v>       0.09090909       0.09090909       0.18181818 </v>
   <v>       0.18181818       0.09090909       0.18181818 </v>
   <v>       0.27272727       0.09090909       0.18181818 </v>
   <v>       0.36363636       0.09090909       0.18181818 </v>
   <v>       0.45454545       0.09090909       0.18181818 </v>
   <v>       0.18181818       0.18181818       0.18181818 </v>
   <v>       0.27272727       0.18181818       0.18181818 </v>
   <v>       0.36363636       0.18181818       0.18181818 </v>
   <v>       0.45454545       0.18181818       0.18181818 </v>
   <v>       0.27272727       0.27272727       0.18181818 </v>
   <v>       0.36363636       0.27272727       0.18181818 </v>
   <v>       0.45454545       0.27272727       0.18181818 </v>
   <v>       0.36363636       0.36363636       0.18181818 </v>
   <v>       0.45454545       0.36363636       0.18181818 </v>
   <v>       0.45454545       0.45454545       0.18181818 </v>
   <v>       0.00000000       0.00000000       0.27272727 </v>
   <v>       0.09090909       0.00000000       0.27272727 </v>
   <v>       0.18181818       0.00000000       0.27272727 </v>
   <v>       0.27272727       0.00000000       0.27272727 </v>
   <v>       0.36363636       0.00000000       0.27272727 </v>
   <v>       0.45454545       0.00000000       0.27272727 </v>
   <v>       0.09090909       0.09090909       0.27272727 </v>
   <v>       0.18181818       0.09090909       0.27272727 </v>
   <v>       0.27272727       0.09090909       0.27272727 </v>
   <v>       0.36363636       0.09090909       0.27272727 </v>
   <v>       0.45454545       0.09090909       0.27272727 </v>
   <v>       0.18181818       0.18181818       0.27272727 </v>
   <v>       0.27272727       0.18181818       0.27272727 </v>
   <v>       0.36363636       0.18181818       0.27272727 </v>
   <v>       0.45454545       0.18181818       0.27272727 </v>
   <v>       0.27272727       0.27272727       0.27272727 </v>
   <v>       0.36363636       0.27272727       0.27272727 </v>
   <v>       0.45454545       0.27272727       0.27272727 </v>
   <v>       0.36363636       0.36363636       0.27272727 </v>
   <v>       0.45454545       0.36363636       0.27272727 </v>
   <v>       0.45454545       0.45454545       0.27272727 </v>
   <v>       0.00000000       0.00000000       0.36363636 </v>
   <v>       0.09090909       0.00000000       0.36363636 </v>
   <v>       0.18181818       0.00000000       0.36363636 </v>
   <v>       0.27272727       0.00000000       0.36363636 </v>
   <v>       0.36363636       0.00000000       0.36363636 </v>
   <v>       0.45454545       0.00000000       0.36363636 </v>
   <v>       0.09090909       0.09090909       0.36363636 </v>
   <v>       0.18181818       0.09090909       0.36363636 </v>
   <v>       0.27272727       0.09090909       0.36363636 </v>
   <v>       0.36363636       0.09090909       0.36363636 </v>
   <v>       0.45454545       0.09090909       0.36363636 </v>
   <v>       0.18181818       0.18181818       0.36363636 </v>
   <v>       0.27272727       0.18181818       0.36363636 </v>
   <v>       0.36363636       0.18181818       0.36363636 </v>
   <v>       0.45454545       0.18181818       0.36363636 </v>
   <v>       0.27272727       0.27272727       0.36363636 </v>
   <v>       0.36363636       0.27272727       0.36363636 </v>
   <v>       0.45454545       0.27272727       0.36363636 </v>
   <v>       0.36363636       0.36363636       0.36363636 </v>
   <v>       0.45454545       0.36363636       0.36363636 </v>
   <v>       0.45454545       0.45454545       0.36363636 </v>
   <v>       0.00000000       0.00000000       0.45454545 </v>
   <v>       0.09090909       0.00000000       0.45454545 </v>
   <v>       0.18181818       0.00000000       0.45454545 </v>
   <v>       0.27272727       0.00000000       0.45454545 </v>
   <v>       0.36363636       0.00000000       0.45454545 </v>
   <v>       0.45454545       0.00000000       0.45454545 </v>
   <v>       0.09090909       0.09090909       0.45454545 </v>
   <v>       0.18181818       0.09090909       0.45454545 </v>
   <v>       0.27272727       0.09090909       0.45454545 </v>
   <v>       0.36363636       0.09090909       0.45454545 </v>
   <v>       0.45454545       0.09090909       0.45454545 </v>
   <v>       0.18181818       0.18181818       0.45454545 </v>
   <v>       0.27272727       0.18181818       0.45454545 </v>
   <v>       0.36363636       0.18181818       0.45454545 </v>
   <v>       0.45454545       0.18181818       0.45454545 </v>
   <v>       0.27272727       0.27272727       0.45454545 </v>
   <v>       0.36363636       0.27272727       0.45454545 </v>
   <v>       0.45454545       0.27272727       0.45454545 </v>
   <v>       0.36363636       0.36363636       0.45454545 </v>
   <v>       0.45454545       0.36363636       0.45454545 </v>
   <v>       0.45454545       0.45454545       0.45454545 </v>
  </varray>
  <varray name="weights" >
   <v>       0.00075131 </v>
   <v>       0.00300526 </v>
   <v>       0.00300526 </v>
   <v>       0.00300526 </v>
   <v>       0.00300526 </v>
   <v>       0.00300526 </v>
   <v>       0.00300526 </v>
   <v>       0.00601052 </v>
   <v>       0.00601052 </v>
   <v>       0.00601052 </v>
   <v>       0.00601052 </v>
   <v>       0.00300526 </v>
   <v>       0.00601052 </v>
   <v>       0.00601052 </v>
   <v>       0.00601052 </v>
   <v>       0.00300526 </v>
   <v>       0.00601052 </v>
   <v>       0.00601052 </v>
   <v>       0.00300526 </v>
   <v>       0.00601052 </v>
   <v>       0.00300526 </v>
   <v>       0.00150263 </v>
   <v>       0.00601052 </v>
   <v>       0.00601052 </v>
   <v>       0.00601052 </v>
   <v>       0.00601052 </v>
   <v>       0.00601052 </v>
   <v>       0.00601052 </v>
   <v>       0.01202104 </v>
   <v>       0.01202104 </v>
   <v>       0.01202104 </v>
   <v>       0.01202104 </v>
   <v>       0.00601052 </v>
   <v>       0.01202104 </v>
   <v>       0.01202104 </v>
   <v>       0.01202104 </v>
   <v>       0.00601052 </v>
   <v>       0.01202104 </v>
   <v>       0.01202104 </v>
   <v>       0.00601052 </v>
   <v>       0.01202104 </v>
   <v>       0.00601052 </v>
   <v>       0.00150263 </v>
   <v>       0.00601052 </v>
   <v>       0.00601052 </v>
   <v>       0.00601052 </v>
   <v>       0.00601052 </v>
   <v>       0.00601052 </v>
   <v>       0.00601052 </v>
   <v>       0.01202104 </v>
   <v>       0.01202104 </v>
   <v>       0.01202104 </v>
   <v>       0.01202104 </v>
   <v>       0.00601052 </v>
   <v>       0.01202104 </v>
   <v>       0.01202104 </v>
   <v>       0.01202104 </v>
   <v>       0.00601052 </v>
   <v>       0.01202104 </v>
   <v>       0.01202104 </v>
   <v>       0.00601052 </v>
   <v>       0.01202104 </v>
   <v>       0.00601052 </v>
   <v>       0.00150263 </v>
   <v>       0.00601052 </v>
   <v>       0.00601052 </v>
   <v>       0.00601052 </v>
   <v>       0.00601052 </v>
   <v>       0.00601052 </v>
   <v>       0.00601052 </v>
   <v>       0.01202104 </v>
   <v>       0.01202104 </v>
   <v>       0.01202104 </v>
   <v>       0.01202104 </v>
   <v>       0.00601052 </v>
   <v>       0.01202104 </v>
   <v>       0.01202104 </v>
   <v>       0.01202104 </v>
   <v>       0.00601052 </v>
   <v>       0.01202104 </v>
   <v>       0.01202104 </v>
   <v>       0.00601052 </v>
   <v>       0.01202104 </v>
   <v>       0.00601052 </v>
   <v>       0.00150263 </v>
   <v>       0.00601052 </v>
   <v>       0.00601052 </v>
   <v>       0.00601052 </v>
   <v>       0.00601052 </v>
   <v>       0.00601052 </v>
   <v>       0.00601052 </v>
   <v>       0.01202104 </v>
   <v>       0.01202104 </v>
   <v>       0.01202104 </v>
   <v>       0.01202104 </v>
   <v>       0.00601052 </v>
   <v>       0.01202104 </v>
   <v>       0.01202104 </v>
   <v>       0.01202104 </v>
   <v>       0.00601052 </v>
   <v>       0.01202104 </v>
   <v>       0.01202104 </v>
   <v>       0.00601052 </v>
   <v>       0.01202104 </v>
   <v>       0.00601052 </v>
   <v>       0.00150263 </v>
   <v>       0.00601052 </v>
   <v>       0.00601052 </v>
   <v>       0.00601052 </v>
   <v>       0.00601052 </v>
   <v>       0.00601052 </v>
   <v>       0.00601052 </v>
   <v>       0.01202104 </v>
   <v>       0.01202104 </v>
   <v>       0.01202104 </v>
   <v>       0.01202104 </v>
   <v>       0.00601052 </v>
   <v>       0.01202104 </v>
   <v>       0.01202104 </v>
   <v>       0.01202104 </v>
   <v>       0.00601052 </v>
   <v>       0.01202104 </v>
   <v>       0.01202104 </v>
   <v>       0.00601052 </v>
   <v>       0.01202104 </v>
   <v>       0.00601052 </v>
  </varray>
 </kpoints>
 <parameters>
  <separator name="general" >
   <i type="string" name="SYSTEM">unknown system</i>
   <i type="logical" name="LCOMPAT"> F  </i>
  </separator>
  <separator name="electronic" >
   <i type="string" name="PREC">accura</i>
   <i name="ENMAX">    520.00000000</i>
   <i name="ENAUG">    291.05200000</i>
   <i name="EDIFF">      0.00005000</i>
   <i type="int" name="IALGO">    38</i>
   <i type="int" name="IWAVPR">    10</i>
   <i type="int" name="NBANDS">    12</i>
   <i name="NELECT">     12.00000000</i>
   <i type="int" name="TURBO">     0</i>
   <i type="int" name="IRESTART">     0</i>
   <i type="int" name="NREBOOT">     0</i>
   <i type="int" name="NMIN">     0</i>
   <i name="EREF">      0.00000000</i>
   <separator name="electronic smearing" >
    <i type="int" name="ISMEAR">     1</i>
    <i name="SIGMA">      0.05000000</i>
    <i name="KSPACING">      0.50000000</i>
    <i type="logical" name="KGAMMA"> T  </i>
   </separator>
   <separator name="electronic projectors" >
    <i type="logical" name="LREAL"> F  </i>
    <v name="ROPT">      0.00000000</v>
    <i type="int" name="LMAXPAW">  -100</i>
    <i type="int" name="LMAXMIX">     2</i>
    <i type="logical" name="NLSPLINE"> F  </i>
   </separator>
   <separator name="electronic startup" >
    <i type="int" name="ISTART">     0</i>
    <i type="int" name="ICHARG">     2</i>
    <i type="int" name="INIWAV">     1</i>
   </separator>
   <separator name="electronic spin" >
    <i type="int" name="ISPIN">     1</i>
    <i type="logical" name="LNONCOLLINEAR"> F  </i>
    <v name="MAGMOM">      1.00000000      1.00000000      1.00000000      1.00000000</v>
    <i name="NUPDOWN">     -1.00000000</i>
    <i type="logical" name="LSORBIT"> F  </i>
    <v name="SAXIS">      0.00000000      0.00000000      1.00000000</v>
    <i type="logical" name="LSPIRAL"> F  </i>
    <v name="QSPIRAL">      0.00000000      0.00000000      0.00000000</v>
    <i type="logical" name="LZEROZ"> F  </i>
   </separator>
   <separator name="electronic exchange-correlation" >
    <i type="logical" name="LASPH"> T  </i>
    <i type="logical" name="LMETAGGA"> F  </i>
   </separator>
   <separator name="electronic convergence" >
    <i type="int" name="NELM">   100</i>
    <i type="int" name="NELMDL">    -5</i>
    <i type="int" name="NELMIN">     4</i>
    <i name="ENINI">    520.00000000</i>
    <separator name="electronic convergence detail" >
     <i type="logical" name="LDIAG"> T  </i>
     <i type="logical" name="LSUBROT"> F  </i>
     <i name="WEIMIN">      0.00000000</i>
     <i name="EBREAK">      0.00000104</i>
     <i name="DEPER">      0.30000000</i>
     <i type="int" name="NRMM">     4</i>
     <i name="TIME">      0.40000000</i>
    </separator>
   </separator>
   <separator name="electronic mixer" >
    <i name="AMIX">      0.40000000</i>
    <i name="BMIX">      1.00000000</i>
    <i name="AMIN">      0.10000000</i>
    <i name="AMIX_MAG">      1.60000000</i>
    <i name="BMIX_MAG">      1.00000000</i>
    <separator name="electronic mixer details" >
     <i type="int" name="IMIX">     4</i>
     <i type="logical" name="MIXFIRST"> F  </i>
     <i type="int" name="MAXMIX">   -45</i>
     <i name="WC">    100.00000000</i>
     <i type="int" name="INIMIX">     1</i>
     <i type="int" name="MIXPRE">     1</i>
     <i type="int" name="MREMOVE">     5</i>
    </separator>
   </separator>
   <separator name="electronic dipolcorrection" >
    <i type="logical" name="LDIPOL"> F  </i>
    <i type="logical" name="LMONO"> F  </i>
    <i type="int" name="IDIPOL">     0</i>
    <i name="EPSILON">      1.00000000</i>
    <v name="DIPOL">   -100.00000000   -100.00000000   -100.00000000</v>
    <i name="EFIELD">      0.00000000</i>
   </separator>
  </separator>
  <separator name="grids" >
   <i type="int" name="NGX">    30</i>
   <i type="int" name="NGY">    30</i>
   <i type="int" name="NGZ">    30</i>
   <i type="int" name="NGXF">    60</i>
   <i type="int" name="NGYF">    60</i>
   <i type="int" name="NGZF">    60</i>
   <i type="logical" name="ADDGRID"> T  </i>
  </separator>
  <separator name="ionic" >
   <i type="int" name="NSW">     0</i>
   <i type="int" name="IBRION">    -1</i>
   <i type="int" name="MDALGO">     0</i>
   <i type="int" name="ISIF">     2</i>
   <i name="PSTRESS">      0.00000000</i>
   <i name="EDIFFG">      0.00050000</i>
   <i type="int" name="NFREE">     0</i>
   <i name="POTIM">      0.50000000</i>
   <i name="SMASS">     -3.00000000</i>
   <i name="SCALEE">      1.00000000</i>
  </separator>
  <separator name="ionic md" >
   <i name="TEBEG">      0.00010000</i>
   <i name="TEEND">      0.00010000</i>
   <i type="int" name="NBLOCK">     1</i>
   <i type="int" name="KBLOCK">     1</i>
   <i type="int" name="NPACO">   256</i>
   <i name="APACO">     16.00000000</i>
  </separator>
  <separator name="symmetry" >
   <i type="int" name="ISYM">     2</i>
   <i name="SYMPREC">      0.00001000</i>
  </separator>
  <separator name="dos" >
   <i type="int" name="LORBIT">     0</i>
   <v name="RWIGS">     -1.00000000</v>
   <i type="int" name="NEDOS">   301</i>
   <i name="EMIN">     10.00000000</i>
   <i name="EMAX">    -10.00000000</i>
   <i name="EFERMI">      0.00000000</i>
  </separator>
  <separator name="writing" >
   <i type="int" name="NWRITE">     2</i>
   <i type="logical" name="LWAVE"> F  </i>
   <i type="logical" name="LDOWNSAMPLE"> F  </i>
   <i type="logical" name="LCHARG"> F  </i>
   <i type="logical" name="LPARD"> F  </i>
   <i type="logical" name="LVTOT"> F  </i>
   <i type="logical" name="LVHAR"> F  </i>
   <i type="logical" name="LELF"> F  </i>
   <i type="logical" name="LOPTICS"> F  </i>
   <v name="STM">      0.00000000      0.00000000      0.00000000      0.00000000      0.00000000      0.00000000      0.00000000</v>
  </separator>
  <separator name="performance" >
   <i type="int" name="NPAR">     4</i>
   <i type="int" name="NSIM">     4</i>
   <i type="int" name="NBLK">    -1</i>
   <i type="logical" name="LPLANE"> T  </i>
   <i type="logical" name="LSCALAPACK"> T  </i>
   <i type="logical" name="LSCAAWARE"> F  </i>
   <i type="logical" name="LSCALU"> F  </i>
   <i type="logical" name="LASYNC"> F  </i>
   <i type="logical" name="LORBITALREAL"> F  </i>
  </separator>
  <separator name="miscellaneous" >
   <i type="int" name="IDIOT">     3</i>
   <i type="int" name="ISPECIAL">     0</i>
   <i type="logical" name="LMUSIC"> F  </i>
   <v name="POMASS">     26.98100000</v>
   <v name="DARWINR">      0.00000000</v>
   <v name="DARWINV">      1.00000000</v>
   <i type="logical" name="LCORR"> T  </i>
  </separator>
  <i type="logical" name="GGA_COMPAT"> T  </i>
  <i type="logical" name="LBERRY"> F  </i>
  <i type="int" name="ICORELEVEL">     0</i>
  <i type="logical" name="LDAU"> F  </i>
  <i type="int" name="I_CONSTRAINED_M">     0</i>
  <separator name="electronic exchange-correlation" >
   <i type="string" name="GGA">--</i>
   <i type="int" name="VOSKOWN">     0</i>
   <i type="logical" name="LHFCALC"> F  </i>
   <i type="string" name="PRECFOCK"></i>
   <i type="logical" name="LSYMGRAD"> F  </i>
   <i type="logical" name="LHFONE"> F  </i>
   <i type="logical" name="LRHFCALC"> F  </i>
   <i type="logical" name="LTHOMAS"> F  </i>
   <i type="logical" name="LMODELHF"> F  </i>
   <i name="ENCUT4O">     -1.00000000</i>
   <i type="int" name="EXXOEP">     0</i>
   <i type="int" name="FOURORBIT">     0</i>
   <i name="AEXX">      0.00000000</i>
   <i name="HFALPHA">      0.00000000</i>
   <i name="MCALPHA">      0.00000000</i>
   <i name="ALDAX">      1.00000000</i>
   <i name="AGGAX">      1.00000000</i>
   <i name="ALDAC">      1.00000000</i>
   <i name="AGGAC">      1.00000000</i>
   <i type="int" name="NKREDX">     1</i>
   <i type="int" name="NKREDY">     1</i>
   <i type="int" name="NKREDZ">     1</i>
   <i type="logical" name="SHIFTRED"> F  </i>
   <i type="logical" name="ODDONLY"> F  </i>
   <i type="logical" name="EVENONLY"> F  </i>
   <i type="int" name="LMAXFOCK">     0</i>
   <i type="int" name="NMAXFOCKAE">     0</i>
   <i type="logical" name="LFOCKAEDFT"> F  </i>
   <i name="HFSCREEN">      0.00000000</i>
   <i name="HFSCREENC">      0.00000000</i>
   <i type="int" name="NBANDSGWLOW">     0</i>
  </separator>
  <separator name="vdW DFT" >
   <i type="logical" name="LUSE_VDW"> F  </i>
   <i name="Zab_VDW">     -0.84910000</i>
   <i name="PARAM1">      0.12340000</i>
   <i name="PARAM2">      1.00000000</i>
   <i name="PARAM3">      0.00000000</i>
  </separator>
  <separator name="model GW" >
   <i type="int" name="MODEL_GW">     0</i>
   <i name="MODEL_EPS0">      9.81596048</i>
   <i name="MODEL_ALPHA">      1.00000000</i>
  </separator>
  <separator name="linear response parameters" >
   <i type="logical" name="LEPSILON"> F  </i>
   <i type="logical" name="LRPA"> F  </i>
   <i type="logical" name="LNABLA"> F  </i>
   <i type="logical" name="LVEL"> F  </i>
   <i type="int" name="KINTER">     0</i>
   <i name="CSHIFT">      0.10000000</i>
   <i name="OMEGAMAX">     -1.00000000</i>
   <i name="DEG_THRESHOLD">      0.00200000</i>
   <i name="RTIME">     -0.10000000</i>
   <i name="WPLASMAI">      0.00000000</i>
   <v name="DFIELD">      0.00000000      0.00000000      0.00000000</v>
   <v name="WPLASMA">      0.00000000      0.00000000      0.00000000      0.00000000      0.00000000      0.00000000      0.00000000      0.00000000      0.00000000</v>
  </separator>
  <separator name="orbital magnetization" >
   <i type="logical" name="NUCIND"> F  </i>
   <v name="MAGPOS">      0.00000000      0.00000000      0.00000000</v>
   <i type="logical" name="LNICSALL"> T  </i>
   <i type="logical" name="ORBITALMAG"> F  </i>
   <i type="logical" name="LMAGBLOCH"> F  </i>
   <i type="logical" name="LCHIMAG"> F  </i>
   <i type="logical" name="LGAUGE"> T  </i>
   <i type="int" name="MAGATOM">     0</i>
   <v name="MAGDIPOL">      0.00000000      0.00000000      0.00000000</v>
   <v name="AVECCONST">      0.00000000      0.00000000      0.00000000</v>
  </separator>
  <separator name="response functions" >
   <i type="logical" name="LADDER"> F  </i>
   <i type="logical" name="LRPAFORCE"> F  </i>
   <i type="logical" name="LFXC"> F  </i>
   <i type="logical" name="LHARTREE"> T  </i>
   <i type="int" name="IBSE">     0</i>
   <v type="int" name="KPOINT">    -1     0     0     0</v>
   <i type="logical" name="LTCTE"> F  </i>
   <i type="logical" name="LTETE"> F  </i>
   <i type="logical" name="LTRIPLET"> F  </i>
   <i type="logical" name="LFXCEPS"> F  </i>
   <i type="logical" name="LFXHEG"> F  </i>
   <i type="int" name="NATURALO">     2</i>
   <i type="logical" name="L2ORDER"> F  </i>
   <i type="logical" name="LMP2LT"> F  </i>
   <i type="logical" name="LUSEW"> F  </i>
   <i name="ENCUTGW">     -2.00000000</i>
   <i name="ENCUTGWSOFT">     -2.00000000</i>
   <i name="ENCUTLF">     -1.00000000</i>
   <i type="int" name="LMAXMP2">    -1</i>
   <i name="SCISSOR">      0.00000000</i>
   <i type="int" name="NOMEGA">     0</i>
   <i type="int" name="NOMEGAR">     0</i>
   <i type="int" name="NBANDSGW">    -1</i>
   <i type="int" name="NBANDSO">    -1</i>
   <i type="int" name="NBANDSV">    -1</i>
   <i type="int" name="NELM">   100</i>
   <i type="int" name="NELMHF">     1</i>
   <i type="int" name="DIM">     3</i>
   <i type="int" name="ANTIRES">     0</i>
   <i name="OMEGAMAX">    -30.00000000</i>
   <i name="OMEGAMIN">    -30.00000000</i>
   <i name="OMEGATL">   -200.00000000</i>
   <i type="int" name="OMEGAGRID">   140</i>
   <i name="CSHIFT">     -0.10000000</i>
   <i type="logical" name="SELFENERGY"> F  </i>
   <i type="logical" name="LSPECTRAL"> F  </i>
   <i type="logical" name="LSPECTRALGW"> F  </i>
   <i type="logical" name="LSINGLES"> F  </i>
   <i type="logical" name="LFERMIGW"> F  </i>
   <i type="logical" name="ODDONLYGW"> F  </i>
   <i type="logical" name="EVENONLYGW"> F  </i>
   <i type="int" name="NKREDLFX">     1</i>
   <i type="int" name="NKREDLFY">     1</i>
   <i type="int" name="NKREDLFZ">     1</i>
   <i type="int" name="MAXMEM">  2800</i>
   <i type="int" name="TELESCOPE">     0</i>
   <i type="int" name="TAUPAR">     1</i>
   <i type="int" name="OMEGAPAR">    -1</i>
   <i name="LAMBDA">      1.00000000</i>
  </separator>
  <separator name="External order field" >
   <i name="OFIELD_KAPPA">      0.00000000</i>
   <v name="OFIELD_K">      0.00000000      0.00000000      0.00000000</v>
   <i name="OFIELD_Q6_NEAR">      0.00000000</i>
   <i name="OFIELD_Q6_FAR">      0.00000000</i>
   <i name="OFIELD_A">      0.00000000</i>
  </separator>
 </parameters>
 <atominfo>
  <atoms>       4 </atoms>
  <types>       1 </types>
  <array name="atoms" >
   <dimension dim="1">ion</dimension>
   <field type="string">element</field>
   <field type="int">atomtype</field>
   <set>
    <rc><c>Al</c><c>   1</c></rc>
    <rc><c>Al</c><c>   1</c></rc>
    <rc><c>Al</c><c>   1</c></rc>
    <rc><c>Al</c><c>   1</c></rc>
   </set>
  </array>
  <array name="atomtypes" >
   <dimension dim="1">type</dimension>
   <field type="int">atomspertype</field>
   <field type="string">element</field>
   <field>mass</field>
   <field>valence</field>
   <field type="string">pseudopotential</field>
   <set>
    <rc><c>   4</c><c>Al</c><c>     26.98100000</c><c>      3.00000000</c><c>  PAW_PBE Al 04Jan2001                  </c></rc>
   </set>
  </array>
 </atominfo>
 <structure name="initialpos" >
  <crystal>
   <varray name="basis" >
    <v>       4.04336400       0.00000000       0.00000000 </v>
    <v>       0.00000000       4.04336400       0.00000000 </v>
    <v>       0.00000000       0.00000000       4.00272600 </v>
   </varray>
   <i name="volume">     65.43973655 </i>
   <varray name="rec_basis" >
    <v>       0.24731882       0.00000000       0.00000000 </v>
    <v>       0.00000000       0.24731882       0.00000000 </v>
    <v>       0.00000000       0.00000000       0.24982974 </v>
   </varray>
  </crystal>
  <varray name="positions" >
   <v>       0.00000000       0.00000000       0.00000000 </v>
   <v>       0.00000000       0.50000000       0.50000000 </v>
   <v>       0.50000000       0.00000000       0.50000000 </v>
   <v>       0.50000000       0.50000000       0.00000000 </v>
  </varray>
 </structure>
 <calculation>
  <scstep>
   <time name="dav">    0.46    0.48</time>
   <time name="total">    0.55    0.58</time>
   <energy>
    <i name="alphaZ">     -0.82122822 </i>
    <i name="ewald">   -294.89927415 </i>
    <i name="hartreedc">     -0.39311386 </i>
    <i name="XCdc">   -104.89748688 </i>
    <i name="pawpsdc">    264.80062850 </i>
    <i name="pawaedc">   -136.98248303 </i>
    <i name="eentropy">     -0.00024092 </i>
    <i name="bandstr">     66.67654895 </i>
    <i name="atom">    214.15382826 </i>
    <i name="e_fr_energy">      7.63717866 </i>
    <i name="e_wo_entrp">      7.63741958 </i>
    <i name="e_0_energy">      7.63725896 </i>
   </energy>
  </scstep>
  <scstep>
   <time name="dav">    0.53    0.53</time>
   <time name="total">    0.53    0.53</time>
   <energy>
    <i name="e_fr_energy">    -14.29144316 </i>
    <i name="e_wo_entrp">    -14.29147565 </i>
    <i name="e_0_energy">    -14.29145399 </i>
   </energy>
  </scstep>
  <scstep>
   <time name="dav">    0.53    0.53</time>
   <time name="total">    0.53    0.53</time>
   <energy>
    <i name="e_fr_energy">    -15.05907507 </i>
    <i name="e_wo_entrp">    -15.05910174 </i>
    <i name="e_0_energy">    -15.05908396 </i>
   </energy>
  </scstep>
  <scstep>
   <time name="dav">    0.49    0.49</time>
   <time name="total">    0.49    0.49</time>
   <energy>
    <i name="e_fr_energy">    -15.06534202 </i>
    <i name="e_wo_entrp">    -15.06537373 </i>
    <i name="e_0_energy">    -15.06535259 </i>
   </energy>
  </scstep>
  <scstep>
   <time name="dav">    0.53    0.53</time>
   <time name="total">    0.58    0.58</time>
   <energy>
    <i name="e_fr_energy">    -15.06540181 </i>
    <i name="e_wo_entrp">    -15.06543350 </i>
    <i name="e_0_energy">    -15.06541237 </i>
   </energy>
  </scstep>
  <scstep>
   <time name="dav">    0.49    0.49</time>
   <time name="total">    0.62    0.62</time>
   <energy>
    <i name="e_fr_energy">    -15.01362436 </i>
    <i name="e_wo_entrp">    -15.01366008 </i>
    <i name="e_0_energy">    -15.01363626 </i>
   </energy>
  </scstep>
  <scstep>
   <time name="dav">    0.48    0.48</time>
   <time name="total">    0.61    0.61</time>
   <energy>
    <i name="e_fr_energy">    -14.97588669 </i>
    <i name="e_wo_entrp">    -14.97595170 </i>
    <i name="e_0_energy">    -14.97590836 </i>
   </energy>
  </scstep>
  <scstep>
   <time name="dav">    0.53    0.53</time>
   <time name="total">    0.66    0.66</time>
   <energy>
    <i name="e_fr_energy">    -14.97578089 </i>
    <i name="e_wo_entrp">    -14.97584845 </i>
    <i name="e_0_energy">    -14.97580341 </i>
   </energy>
  </scstep>
  <scstep>
   <time name="dav">    0.37    0.37</time>
   <time name="total">    0.46    0.46</time>
   <energy>
    <i name="alphaZ">     -0.82122822 </i>
    <i name="ewald">   -294.89927415 </i>
    <i name="hartreedc">     -0.42705468 </i>
    <i name="XCdc">   -104.45146786 </i>
    <i name="pawpsdc">    571.40081852 </i>
    <i name="pawaedc">   -443.63964006 </i>
    <i name="eentropy">      0.00006795 </i>
    <i name="bandstr">     43.70817603 </i>
    <i name="atom">    214.15382826 </i>
    <i name="e_fr_energy">    -14.97577421 </i>
    <i name="e_wo_entrp">    -14.97584216 </i>
    <i name="e_0_energy">    -14.97579686 </i>
   </energy>
  </scstep>
  <structure>
   <crystal>
    <varray name="basis" >
     <v>       4.04336400       0.00000000       0.00000000 </v>
     <v>       0.00000000       4.04336400       0.00000000 </v>
     <v>       0.00000000       0.00000000       4.00272600 </v>
    </varray>
    <i name="volume">     65.43973655 </i>
    <varray name="rec_basis" >
     <v>       0.24731882       0.00000000       0.00000000 </v>
     <v>       0.00000000       0.24731882       0.00000000 </v>
     <v>       0.00000000       0.00000000       0.24982974 </v>
    </varray>
   </crystal>
   <varray name="positions" >
    <v>       0.00000000       0.00000000       0.00000000 </v>
    <v>       0.00000000       0.50000000       0.50000000 </v>
    <v>       0.50000000       0.00000000       0.50000000 </v>
    <v>       0.50000000       0.50000000       0.00000000 </v>
   </varray>
  </structure>
  <varray name="forces" >
   <v>      -0.00000000      -0.00000000       0.00000000 </v>
   <v>       0.00000000      -0.00000000      -0.00000000 </v>
   <v>      -0.00000000       0.00000000       0.00000000 </v>
   <v>      -0.00000000       0.00000000      -0.00000000 </v>
  </varray>
  <varray name="stress" >
   <v>       7.75981856       0.00000000       0.00000000 </v>
   <v>       0.00000000       7.75981856       0.00000000 </v>
   <v>       0.00000000       0.00000000       7.00575849 </v>
  </varray>
  <energy>
   <i name="e_fr_energy">    -14.97577421 </i>
   <i name="e_wo_entrp">    -14.97579686 </i>
   <i name="e_0_energy">      0.00006795 </i>
  </energy>
  <time name="totalsc">    5.76    5.80</time>
  <eigenvalues>
   <array>
    <dimension dim="1">band</dimension>
    <dimension dim="2">kpoint</dimension>
    <dimension dim="3">spin</dimension>
    <field>eigene</field>
    <field>occ</field>
    <set>
     <set comment="spin 1">
      <set comment="kpoint 1">
       <r>   -3.1037    1.0000 </r>
       <r>    5.0968    1.0000 </r>
       <r>    5.0968    1.0000 </r>
       <r>    5.2445    1.0000 </r>
       <r>    6.4181    1.0000 </r>
       <r>    6.4181    1.0000 </r>
       <r>    6.6265    1.0000 </r>
       <r>   13.2722    0.0000 </r>
       <r>   13.3899    0.0000 </r>
       <r>   13.3899    0.0000 </r>
       <r>   13.6002    0.0000 </r>
       <r>   13.6008    0.0000 </r>
      </set>
      <set comment="kpoint 2">
       <r>   -3.0289    1.0000 </r>
       <r>    4.1206    1.0000 </r>
       <r>    5.1652    1.0000 </r>
       <r>    5.3128    1.0000 </r>
       <r>    6.4903    1.0000 </r>
       <r>    6.6985    1.0000 </r>
       <r>    7.5237    1.0000 </r>
       <r>   11.9753    0.0000 </r>
       <r>   12.1107    0.0000 </r>
       <r>   13.0987    0.0000 </r>
       <r>   13.3168    0.0000 </r>
       <r>   13.4637    0.0000 </r>
      </set>
      <set comment="kpoint 3">
       <r>   -2.8047    1.0000 </r>
       <r>    2.8142    1.0000 </r>
       <r>    5.3706    1.0000 </r>
       <r>    5.5179    1.0000 </r>
       <r>    6.7057    1.0000 </r>
       <r>    6.9129    1.0000 </r>
       <r>    9.2182   -0.0000 </r>
       <r>   10.6668    0.0000 </r>
       <r>   10.8050    0.0000 </r>
       <r>   12.1014    0.0000 </r>
       <r>   12.3142    0.0000 </r>
       <r>   13.6850    0.0000 </r>
      </set>
      <set comment="kpoint 4">
       <r>   -2.4318    1.0000 </r>
       <r>    1.6012    1.0000 </r>
       <r>    5.7132    1.0000 </r>
       <r>    5.8599    1.0000 </r>
       <r>    7.0595    1.0000 </r>
       <r>    7.2638    1.0000 </r>
       <r>    9.4949    0.0000 </r>
       <r>    9.6351    0.0000 </r>
       <r>   11.0486    0.0000 </r>
       <r>   11.0774    0.0000 </r>
       <r>   11.2563    0.0000 </r>
       <r>   14.0529    0.0000 </r>
      </set>
      <set comment="kpoint 5">
       <r>   -1.9113    1.0000 </r>
       <r>    0.5150    1.0000 </r>
       <r>    6.1932    1.0000 </r>
       <r>    6.3390    1.0000 </r>
       <r>    7.5376    1.0000 </r>
       <r>    7.7318    1.0000 </r>
       <r>    8.4615   -0.0000 </r>
       <r>    8.6035   -0.0000 </r>
       <r>   10.0839    0.0000 </r>
       <r>   10.2799    0.0000 </r>
       <r>   13.0660    0.0000 </r>
       <r>   14.5677    0.0000 </r>
      </set>
      <set comment="kpoint 6">
       <r>   -1.2451    1.0000 </r>
       <r>   -0.4353    1.0000 </r>
       <r>    6.8110    1.0000 </r>
       <r>    6.9558    1.0000 </r>
       <r>    7.5670    1.0000 </r>
       <r>    7.7105    1.0000 </r>
       <r>    8.0748    0.0462 </r>
       <r>    8.2040   -0.0000 </r>
       <r>    9.3575   -0.0000 </r>
       <r>    9.4874    0.0000 </r>
       <r>   15.1720    0.0000 </r>
       <r>   15.2407    0.0000 </r>
      </set>
      <set comment="kpoint 7">
       <r>   -2.9541    1.0000 </r>
       <r>    4.1910    1.0000 </r>
       <r>    4.1910    1.0000 </r>
       <r>    5.3812    1.0000 </r>
       <r>    6.7698    1.0000 </r>
       <r>    7.5936    1.0000 </r>
       <r>    7.5936    1.0000 </r>
       <r>   11.0341    0.0000 </r>
       <r>   12.1799    0.0000 </r>
       <r>   12.1799    0.0000 </r>
       <r>   13.3822    0.0000 </r>
       <r>   13.3822    0.0000 </r>
      </set>
      <set comment="kpoint 8">
       <r>   -2.7300    1.0000 </r>
       <r>    2.8858    1.0000 </r>
       <r>    4.4022    1.0000 </r>
       <r>    5.5863    1.0000 </r>
       <r>    6.9810    1.0000 </r>
       <r>    7.8017    1.0000 </r>
       <r>    9.2855   -0.0000 </r>
       <r>    9.7883    0.0000 </r>
       <r>   10.8740    0.0000 </r>
       <r>   12.3832    0.0000 </r>
       <r>   12.3875    0.0000 </r>
       <r>   13.0567    0.0000 </r>
      </set>
      <set comment="kpoint 9">
       <r>   -2.3573    1.0000 </r>
       <r>    1.6735    1.0000 </r>
       <r>    4.7535    1.0000 </r>
       <r>    5.9283    1.0000 </r>
       <r>    7.3152    1.0000 </r>
       <r>    8.1422   -0.0072 </r>
       <r>    8.6519   -0.0000 </r>
       <r>    9.7040    0.0000 </r>
       <r>   11.1400    0.0000 </r>
       <r>   11.3312    0.0000 </r>
       <r>   12.0250    0.0000 </r>
       <r>   12.7330    0.0000 </r>
      </set>
      <set comment="kpoint 10">
       <r>   -1.8372    1.0000 </r>
       <r>    0.5879    1.0000 </r>
       <r>    5.2437    1.0000 </r>
       <r>    6.4075    1.0000 </r>
       <r>    7.4225    1.0000 </r>
       <r>    7.9992    0.9971 </r>
       <r>    8.5901   -0.0000 </r>
       <r>    8.6723   -0.0000 </r>
       <r>   10.3755    0.0000 </r>
       <r>   11.0500    0.0000 </r>
       <r>   13.1137    0.0000 </r>
       <r>   13.2157    0.0000 </r>
      </set>
      <set comment="kpoint 11">
       <r>   -1.1713    1.0000 </r>
       <r>   -0.3619    1.0000 </r>
       <r>    5.8703    1.0000 </r>
       <r>    6.6256    1.0000 </r>
       <r>    7.0244    1.0000 </r>
       <r>    7.7792    1.0000 </r>
       <r>    8.4869   -0.0000 </r>
       <r>    8.9235   -0.0000 </r>
       <r>    9.7779    0.0000 </r>
       <r>   10.2137    0.0000 </r>
       <r>   13.8344    0.0000 </r>
       <r>   14.5876    0.0000 </r>
      </set>
      <set comment="kpoint 12">
       <r>   -2.5063    1.0000 </r>
       <r>    3.1003    1.0000 </r>
       <r>    3.1003    1.0000 </r>
       <r>    5.7914    1.0000 </r>
       <r>    7.1716    1.0000 </r>
       <r>    8.5741   -0.0000 </r>
       <r>    9.4841    0.0000 </r>
       <r>    9.4841    0.0000 </r>
       <r>   11.0808    0.0000 </r>
       <r>   11.0808    0.0000 </r>
       <r>   12.5917    0.0000 </r>
       <r>   12.5917    0.0000 </r>
      </set>
      <set comment="kpoint 13">
       <r>   -2.1342    1.0000 </r>
       <r>    1.8903    1.0000 </r>
       <r>    3.4570    1.0000 </r>
       <r>    6.1336    1.0000 </r>
       <r>    7.1645    1.0000 </r>
       <r>    7.7783    1.0000 </r>
       <r>    9.7949    0.0000 </r>
       <r>    9.9105    0.0000 </r>
       <r>   11.3145    0.0000 </r>
       <r>   11.4254    0.0000 </r>
       <r>   11.5676    0.0000 </r>
       <r>   12.9505    0.0000 </r>
      </set>
      <set comment="kpoint 14">
       <r>   -1.6148    1.0000 </r>
       <r>    0.8064    1.0000 </r>
       <r>    3.9548    1.0000 </r>
       <r>    6.2592    1.0000 </r>
       <r>    6.6130    1.0000 </r>
       <r>    8.1391   -0.0088 </r>
       <r>    8.8785   -0.0000 </r>
       <r>   10.0284    0.0000 </r>
       <r>   10.8205    0.0000 </r>
       <r>   11.9074    0.0000 </r>
       <r>   12.6467    0.0000 </r>
       <r>   13.0673    0.0000 </r>
      </set>
      <set comment="kpoint 15">
       <r>   -0.9500    1.0000 </r>
       <r>   -0.1419    1.0000 </r>
       <r>    4.5916    1.0000 </r>
       <r>    5.3635    1.0000 </r>
       <r>    7.2301    1.0000 </r>
       <r>    7.9852    1.0331 </r>
       <r>    8.7508   -0.0000 </r>
       <r>    9.4737    0.0000 </r>
       <r>   11.1003    0.0000 </r>
       <r>   11.8007    0.0000 </r>
       <r>   12.5263    0.0000 </r>
       <r>   13.2815    0.0000 </r>
      </set>
      <set comment="kpoint 16">
       <r>   -1.7630    1.0000 </r>
       <r>    2.2507    1.0000 </r>
       <r>    2.2507    1.0000 </r>
       <r>    6.1289    1.0000 </r>
       <r>    6.4760    1.0000 </r>
       <r>    8.0051    0.9632 </r>
       <r>   10.2547    0.0000 </r>
       <r>   10.2547    0.0000 </r>
       <r>   11.4182    0.0000 </r>
       <r>   11.4182    0.0000 </r>
       <r>   12.1349    0.0000 </r>
       <r>   12.1349    0.0000 </r>
      </set>
      <set comment="kpoint 17">
       <r>   -1.2451    1.0000 </r>
       <r>    1.1698    1.0000 </r>
       <r>    2.7538    1.0000 </r>
       <r>    5.0947    1.0000 </r>
       <r>    6.9558    1.0000 </r>
       <r>    8.4892   -0.0000 </r>
       <r>    9.2223   -0.0000 </r>
       <r>   10.7284    0.0000 </r>
       <r>   10.7364    0.0000 </r>
       <r>   12.2226    0.0000 </r>
       <r>   12.3070    0.0000 </r>
       <r>   13.0046    0.0000 </r>
      </set>
      <set comment="kpoint 18">
       <r>   -0.5820    1.0000 </r>
       <r>    0.2240    1.0000 </r>
       <r>    3.3977    1.0000 </r>
       <r>    4.1797    1.0000 </r>
       <r>    7.5732    1.0000 </r>
       <r>    8.3286   -0.0000 </r>
       <r>    9.1194   -0.0000 </r>
       <r>    9.8766    0.0000 </r>
       <r>   11.3556    0.0000 </r>
       <r>   12.1118    0.0000 </r>
       <r>   12.8695    0.0000 </r>
       <r>   12.8723    0.0000 </r>
      </set>
      <set comment="kpoint 19">
       <r>   -0.7290    1.0000 </r>
       <r>    1.6771    1.0000 </r>
       <r>    1.6771    1.0000 </r>
       <r>    4.0407    1.0000 </r>
       <r>    7.4359    1.0000 </r>
       <r>    8.9859   -0.0000 </r>
       <r>    9.7038    0.0000 </r>
       <r>    9.7038    0.0000 </r>
       <r>   11.2605    0.0000 </r>
       <r>   11.2605    0.0000 </r>
       <r>   11.9736    0.0000 </r>
       <r>   13.5061    0.0000 </r>
      </set>
      <set comment="kpoint 20">
       <r>   -0.0683    1.0000 </r>
       <r>    0.7348    1.0000 </r>
       <r>    2.3265    1.0000 </r>
       <r>    3.1156    1.0000 </r>
       <r>    8.0537    0.2862 </r>
       <r>    8.8096   -0.0000 </r>
       <r>    9.6198    0.0000 </r>
       <r>   10.3228    0.0000 </r>
       <r>   10.3825    0.0000 </r>
       <r>   11.0795    0.0000 </r>
       <r>   11.8921    0.0000 </r>
       <r>   12.6420    0.0000 </r>
      </set>
      <set comment="kpoint 21">
       <r>    0.5893    1.0000 </r>
       <r>    1.3887    1.0000 </r>
       <r>    1.3887    1.0000 </r>
       <r>    2.1834    1.0000 </r>
       <r>    8.6720   -0.0000 </r>
       <r>    9.4283    0.0000 </r>
       <r>    9.4283    0.0000 </r>
       <r>   10.1850    0.0000 </r>
       <r>   10.2529    0.0000 </r>
       <r>   11.0136    0.0000 </r>
       <r>   11.0136    0.0000 </r>
       <r>   11.7694    0.0000 </r>
      </set>
      <set comment="kpoint 22">
       <r>   -3.0274    1.0000 </r>
       <r>    4.2597    1.0000 </r>
       <r>    5.1666    1.0000 </r>
       <r>    5.1666    1.0000 </r>
       <r>    6.4917    1.0000 </r>
       <r>    6.4917    1.0000 </r>
       <r>    7.7430    1.0000 </r>
       <r>   12.1097    0.0000 </r>
       <r>   12.1097    0.0000 </r>
       <r>   13.2377    0.0000 </r>
       <r>   13.2377    0.0000 </r>
       <r>   13.3476    0.0000 </r>
      </set>
      <set comment="kpoint 23">
       <r>   -2.9526    1.0000 </r>
       <r>    4.1924    1.0000 </r>
       <r>    4.3301    1.0000 </r>
       <r>    5.2351    1.0000 </r>
       <r>    6.5634    1.0000 </r>
       <r>    7.5949    1.0000 </r>
       <r>    7.8124    1.0000 </r>
       <r>   11.1662    0.0000 </r>
       <r>   12.0460    0.0000 </r>
       <r>   12.1791    0.0000 </r>
       <r>   13.1656    0.0000 </r>
       <r>   13.3030    0.0000 </r>
      </set>
      <set comment="kpoint 24">
       <r>   -2.7285    1.0000 </r>
       <r>    2.8872    1.0000 </r>
       <r>    4.5409    1.0000 </r>
       <r>    5.4405    1.0000 </r>
       <r>    6.7764    1.0000 </r>
       <r>    8.0191    0.8296 </r>
       <r>    9.2868   -0.0000 </r>
       <r>    9.9190    0.0000 </r>
       <r>   10.7373    0.0000 </r>
       <r>   12.1724    0.0000 </r>
       <r>   12.3873    0.0000 </r>
       <r>   13.2772    0.0000 </r>
      </set>
      <set comment="kpoint 25">
       <r>   -2.3558    1.0000 </r>
       <r>    1.6750    1.0000 </r>
       <r>    4.8915    1.0000 </r>
       <r>    5.7831    1.0000 </r>
       <r>    7.1193    1.0000 </r>
       <r>    8.3547   -0.0000 </r>
       <r>    8.7756   -0.0000 </r>
       <r>    9.5652    0.0000 </r>
       <r>   11.1277    0.0000 </r>
       <r>   11.1410    0.0000 </r>
       <r>   12.2444    0.0000 </r>
       <r>   12.7337    0.0000 </r>
      </set>
      <set comment="kpoint 26">
       <r>   -1.8357    1.0000 </r>
       <r>    0.5894    1.0000 </r>
       <r>    5.3808    1.0000 </r>
       <r>    6.2632    1.0000 </r>
       <r>    7.4288    1.0000 </r>
       <r>    7.9250    1.0026 </r>
       <r>    8.5318   -0.0000 </r>
       <r>    8.7779   -0.0000 </r>
       <r>   10.1985    0.0000 </r>
       <r>   11.2654    0.0000 </r>
       <r>   13.1129    0.0000 </r>
       <r>   13.2178    0.0000 </r>
      </set>
      <set comment="kpoint 27">
       <r>   -1.1698    1.0000 </r>
       <r>   -0.3604    1.0000 </r>
       <r>    6.0057    1.0000 </r>
       <r>    6.7551    1.0000 </r>
       <r>    6.8811    1.0000 </r>
       <r>    7.6372    1.0000 </r>
       <r>    8.3056   -0.0000 </r>
       <r>    8.8859   -0.0000 </r>
       <r>    9.8283    0.0000 </r>
       <r>   10.4134    0.0000 </r>
       <r>   13.8382    0.0000 </r>
       <r>   14.5989    0.0000 </r>
      </set>
      <set comment="kpoint 28">
       <r>   -2.8779    1.0000 </r>
       <r>    4.2628    1.0000 </r>
       <r>    4.2628    1.0000 </r>
       <r>    4.4003    1.0000 </r>
       <r>    7.6640    1.0000 </r>
       <r>    7.6640    1.0000 </r>
       <r>    7.8808    1.0000 </r>
       <r>   11.1057    0.0000 </r>
       <r>   11.2361    0.0000 </r>
       <r>   11.2361    0.0000 </r>
       <r>   13.7930    0.0000 </r>
       <r>   13.9787    0.0000 </r>
      </set>
      <set comment="kpoint 29">
       <r>   -2.6539    1.0000 </r>
       <r>    2.9588    1.0000 </r>
       <r>    4.4738    1.0000 </r>
       <r>    4.6110    1.0000 </r>
       <r>    7.8677    1.0000 </r>
       <r>    8.0811    0.0074 </r>
       <r>    9.3513   -0.0000 </r>
       <r>    9.8650    0.0000 </r>
       <r>    9.9923    0.0000 </r>
       <r>   11.4471    0.0000 </r>
       <r>   13.1250    0.0000 </r>
       <r>   13.3439    0.0000 </r>
      </set>
      <set comment="kpoint 30">
       <r>   -2.2814    1.0000 </r>
       <r>    1.7473    1.0000 </r>
       <r>    4.8248    1.0000 </r>
       <r>    4.9612    1.0000 </r>
       <r>    8.1693   -0.0008 </r>
       <r>    8.3263   -0.0000 </r>
       <r>    8.8071   -0.0000 </r>
       <r>    8.8803   -0.0000 </r>
       <r>   11.1789    0.0000 </r>
       <r>   11.8198    0.0000 </r>
       <r>   12.0972    0.0000 </r>
       <r>   12.3144    0.0000 </r>
      </set>
      <set comment="kpoint 31">
       <r>   -1.7615    1.0000 </r>
       <r>    0.6622    1.0000 </r>
       <r>    5.3138    1.0000 </r>
       <r>    5.4490    1.0000 </r>
       <r>    7.6088    1.0000 </r>
       <r>    7.7309    1.0000 </r>
       <r>    8.7630   -0.0000 </r>
       <r>    8.9620   -0.0000 </r>
       <r>   11.1317    0.0000 </r>
       <r>   11.3418    0.0000 </r>
       <r>   12.2347    0.0000 </r>
       <r>   13.2285    0.0000 </r>
      </set>
      <set comment="kpoint 32">
       <r>   -1.0960    1.0000 </r>
       <r>   -0.2871    1.0000 </r>
       <r>    5.9329    1.0000 </r>
       <r>    6.0611    1.0000 </r>
       <r>    6.7373    1.0000 </r>
       <r>    6.8634    1.0000 </r>
       <r>    9.3022   -0.0000 </r>
       <r>    9.4581    0.0000 </r>
       <r>   10.3664    0.0000 </r>
       <r>   10.5237    0.0000 </r>
       <r>   12.8660    0.0000 </r>
       <r>   13.6196    0.0000 </r>
      </set>
      <set comment="kpoint 33">
       <r>   -2.4303    1.0000 </r>
       <r>    3.1731    1.0000 </r>
       <r>    3.1731    1.0000 </r>
       <r>    4.8210    1.0000 </r>
       <r>    8.1871   -0.0001 </r>
       <r>    8.7313   -0.0000 </r>
       <r>    9.5185    0.0000 </r>
       <r>    9.5185    0.0000 </r>
       <r>   10.2352    0.0000 </r>
       <r>   10.2352    0.0000 </r>
       <r>   13.5443    0.0000 </r>
       <r>   13.5443    0.0000 </r>
      </set>
      <set comment="kpoint 34">
       <r>   -2.0584    1.0000 </r>
       <r>    1.9639    1.0000 </r>
       <r>    3.5296    1.0000 </r>
       <r>    5.1692    1.0000 </r>
       <r>    7.3838    1.0000 </r>
       <r>    8.7253   -0.0000 </r>
       <r>    8.9767   -0.0000 </r>
       <r>    9.9540    0.0000 </r>
       <r>   10.4880    0.0000 </r>
       <r>   11.4591    0.0000 </r>
       <r>   12.5265    0.0000 </r>
       <r>   13.6315    0.0000 </r>
      </set>
      <set comment="kpoint 35">
       <r>   -1.5393    1.0000 </r>
       <r>    0.8806    1.0000 </r>
       <r>    4.0269    1.0000 </r>
       <r>    5.6426    1.0000 </r>
       <r>    6.3790    1.0000 </r>
       <r>    7.9665    1.0285 </r>
       <r>    9.1896   -0.0000 </r>
       <r>   10.3630    0.0000 </r>
       <r>   10.9934    0.0000 </r>
       <r>   11.5930    0.0000 </r>
       <r>   12.7183    0.0000 </r>
       <r>   13.2606    0.0000 </r>
      </set>
      <set comment="kpoint 36">
       <r>   -0.8748    1.0000 </r>
       <r>   -0.0672    1.0000 </r>
       <r>    4.6622    1.0000 </r>
       <r>    5.4244    1.0000 </r>
       <r>    6.3189    1.0000 </r>
       <r>    7.0713    1.0000 </r>
       <r>    9.7927    0.0000 </r>
       <r>   10.4347    0.0000 </r>
       <r>   11.2530    0.0000 </r>
       <r>   11.6176    0.0000 </r>
       <r>   11.8809    0.0000 </r>
       <r>   12.3735    0.0000 </r>
      </set>
      <set comment="kpoint 37">
       <r>   -1.6874    1.0000 </r>
       <r>    2.3242    1.0000 </r>
       <r>    2.3242    1.0000 </r>
       <r>    5.5030    1.0000 </r>
       <r>    6.2498    1.0000 </r>
       <r>    9.0598   -0.0000 </r>
       <r>    9.3491   -0.0000 </r>
       <r>    9.3491   -0.0000 </r>
       <r>   11.7384    0.0000 </r>
       <r>   11.7384    0.0000 </r>
       <r>   12.9017    0.0000 </r>
       <r>   12.9017    0.0000 </r>
      </set>
      <set comment="kpoint 38">
       <r>   -1.1697    1.0000 </r>
       <r>    1.2439    1.0000 </r>
       <r>    2.8269    1.0000 </r>
       <r>    5.1556    1.0000 </r>
       <r>    6.0414    1.0000 </r>
       <r>    8.3196   -0.0000 </r>
       <r>    9.5447    0.0000 </r>
       <r>    9.8394    0.0000 </r>
       <r>   11.6819    0.0000 </r>
       <r>   12.1132    0.0000 </r>
       <r>   12.4490    0.0000 </r>
       <r>   13.1804    0.0000 </r>
      </set>
      <set comment="kpoint 39">
       <r>   -0.5070    1.0000 </r>
       <r>    0.2986    1.0000 </r>
       <r>    3.4703    1.0000 </r>
       <r>    4.2507    1.0000 </r>
       <r>    6.6568    1.0000 </r>
       <r>    7.4200    1.0000 </r>
       <r>   10.1646    0.0000 </r>
       <r>   10.4633    0.0000 </r>
       <r>   10.9044    0.0000 </r>
       <r>   11.2218    0.0000 </r>
       <r>   12.9501    0.0000 </r>
       <r>   13.6502    0.0000 </r>
      </set>
      <set comment="kpoint 40">
       <r>   -0.6539    1.0000 </r>
       <r>    1.7509    1.0000 </r>
       <r>    1.7509    1.0000 </r>
       <r>    4.1119    1.0000 </r>
       <r>    6.5178    1.0000 </r>
       <r>    8.8077   -0.0000 </r>
       <r>    8.8077   -0.0000 </r>
       <r>   10.0352    0.0000 </r>
       <r>   11.0880    0.0000 </r>
       <r>   12.2727    0.0000 </r>
       <r>   12.2727    0.0000 </r>
       <r>   14.2917    0.0000 </r>
      </set>
      <set comment="kpoint 41">
       <r>    0.0064    1.0000 </r>
       <r>    0.8091    1.0000 </r>
       <r>    2.3999    1.0000 </r>
       <r>    3.1884    1.0000 </r>
       <r>    7.1433    1.0000 </r>
       <r>    7.9077    1.0006 </r>
       <r>    9.4325    0.0000 </r>
       <r>   10.1932    0.0000 </r>
       <r>   10.6588    0.0000 </r>
       <r>   11.4095    0.0000 </r>
       <r>   12.9022    0.0000 </r>
       <r>   13.6462    0.0000 </r>
      </set>
      <set comment="kpoint 42">
       <r>    0.6637    1.0000 </r>
       <r>    1.4626    1.0000 </r>
       <r>    1.4626    1.0000 </r>
       <r>    2.2569    1.0000 </r>
       <r>    7.7696    1.0000 </r>
       <r>    8.5334   -0.0000 </r>
       <r>    8.5334   -0.0000 </r>
       <r>    9.2959   -0.0000 </r>
       <r>   11.2828    0.0000 </r>
       <r>   12.0335    0.0000 </r>
       <r>   12.0335    0.0000 </r>
       <r>   12.7813    0.0000 </r>
      </set>
      <set comment="kpoint 43">
       <r>   -2.7986    1.0000 </r>
       <r>    2.9308    1.0000 </r>
       <r>    5.3761    1.0000 </r>
       <r>    5.3761    1.0000 </r>
       <r>    6.7114    1.0000 </r>
       <r>    6.7114    1.0000 </r>
       <r>    9.4667    0.0000 </r>
       <r>   10.7776    0.0000 </r>
       <r>   10.7776    0.0000 </r>
       <r>   12.2157    0.0000 </r>
       <r>   12.2157    0.0000 </r>
       <r>   13.5738    0.0000 </r>
      </set>
      <set comment="kpoint 44">
       <r>   -2.7240    1.0000 </r>
       <r>    3.0023    1.0000 </r>
       <r>    4.4078    1.0000 </r>
       <r>    5.4446    1.0000 </r>
       <r>    6.7806    1.0000 </r>
       <r>    7.8071    1.0000 </r>
       <r>    9.5331    0.0000 </r>
       <r>    9.8977    0.0000 </r>
       <r>   10.8467    0.0000 </r>
       <r>   12.2581    0.0000 </r>
       <r>   12.2847    0.0000 </r>
       <r>   13.1776    0.0000 </r>
      </set>
      <set comment="kpoint 45">
       <r>   -2.5002    1.0000 </r>
       <r>    3.1060    1.0000 </r>
       <r>    3.2165    1.0000 </r>
       <r>    5.6502    1.0000 </r>
       <r>    6.9793    1.0000 </r>
       <r>    8.6756   -0.0000 </r>
       <r>    9.4889    0.0000 </r>
       <r>    9.7277    0.0000 </r>
       <r>   10.9486    0.0000 </r>
       <r>   11.0540    0.0000 </r>
       <r>   12.3881    0.0000 </r>
       <r>   12.4933    0.0000 </r>
      </set>
      <set comment="kpoint 46">
       <r>   -2.1281    1.0000 </r>
       <r>    1.8961    1.0000 </r>
       <r>    3.5728    1.0000 </r>
       <r>    5.9930    1.0000 </r>
       <r>    7.1439    1.0000 </r>
       <r>    7.7088    1.0000 </r>
       <r>    9.7762    0.0000 </r>
       <r>   10.0165    0.0000 </r>
       <r>   11.3161    0.0000 </r>
       <r>   11.3885    0.0000 </r>
       <r>   11.3993    0.0000 </r>
       <r>   12.8547    0.0000 </r>
      </set>
      <set comment="kpoint 47">
       <r>   -1.6088    1.0000 </r>
       <r>    0.8123    1.0000 </r>
       <r>    4.0700    1.0000 </r>
       <r>    6.3649    1.0000 </r>
       <r>    6.4732    1.0000 </r>
       <r>    7.9450    1.0105 </r>
       <r>    8.7425   -0.0000 </r>
       <r>   10.0162    0.0000 </r>
       <r>   10.8767    0.0000 </r>
       <r>   11.8824    0.0000 </r>
       <r>   12.8936    0.0000 </r>
       <r>   13.0134    0.0000 </r>
      </set>
      <set comment="kpoint 48">
       <r>   -0.9440    1.0000 </r>
       <r>   -0.1360    1.0000 </r>
       <r>    4.7058    1.0000 </r>
       <r>    5.4759    1.0000 </r>
       <r>    7.0913    1.0000 </r>
       <r>    7.8477    1.0000 </r>
       <r>    8.5539   -0.0000 </r>
       <r>    9.2911   -0.0000 </r>
       <r>   11.3280    0.0000 </r>
       <r>   12.0444    0.0000 </r>
       <r>   12.5027    0.0000 </r>
       <r>   13.2595    0.0000 </r>
      </set>
      <set comment="kpoint 49">
       <r>   -2.6493    1.0000 </r>
       <r>    3.0737    1.0000 </r>
       <r>    4.4781    1.0000 </r>
       <r>    4.4781    1.0000 </r>
       <r>    7.8716    1.0000 </r>
       <r>    7.8716    1.0000 </r>
       <r>    9.5953    0.0000 </r>
       <r>    9.9711    0.0000 </r>
       <r>    9.9711    0.0000 </r>
       <r>   11.3231    0.0000 </r>
       <r>   13.2445    0.0000 </r>
       <r>   13.2445    0.0000 </r>
      </set>
      <set comment="kpoint 50">
       <r>   -2.4257    1.0000 </r>
       <r>    3.1774    1.0000 </r>
       <r>    3.2878    1.0000 </r>
       <r>    4.6885    1.0000 </r>
       <r>    8.0291    0.6893 </r>
       <r>    8.7860   -0.0000 </r>
       <r>    9.5201    0.0000 </r>
       <r>    9.7107    0.0000 </r>
       <r>   10.1619    0.0000 </r>
       <r>   10.2162    0.0000 </r>
       <r>   13.3305    0.0000 </r>
       <r>   13.4452    0.0000 </r>
      </set>
      <set comment="kpoint 51">
       <r>   -2.0538    1.0000 </r>
       <r>    1.9683    1.0000 </r>
       <r>    3.6439    1.0000 </r>
       <r>    5.0377    1.0000 </r>
       <r>    7.4810    1.0000 </r>
       <r>    8.5253   -0.0000 </r>
       <r>    8.8599   -0.0000 </r>
       <r>   10.1838    0.0000 </r>
       <r>   10.4673    0.0000 </r>
       <r>   11.4621    0.0000 </r>
       <r>   12.3181    0.0000 </r>
       <r>   13.7821    0.0000 </r>
      </set>
      <set comment="kpoint 52">
       <r>   -1.5348    1.0000 </r>
       <r>    0.8851    1.0000 </r>
       <r>    4.1405    1.0000 </r>
       <r>    5.5175    1.0000 </r>
       <r>    6.4825    1.0000 </r>
       <r>    7.8396    1.0000 </r>
       <r>    8.9801   -0.0000 </r>
       <r>   10.5565    0.0000 </r>
       <r>   10.9724    0.0000 </r>
       <r>   11.4306    0.0000 </r>
       <r>   12.9629    0.0000 </r>
       <r>   13.2406    0.0000 </r>
      </set>
      <set comment="kpoint 53">
       <r>   -0.8703    1.0000 </r>
       <r>   -0.0627    1.0000 </r>
       <r>    4.7745    1.0000 </r>
       <r>    5.5287    1.0000 </r>
       <r>    6.1961    1.0000 </r>
       <r>    6.9428    1.0000 </r>
       <r>    9.5880    0.0000 </r>
       <r>   10.2866    0.0000 </r>
       <r>   11.4339    0.0000 </r>
       <r>   11.5969    0.0000 </r>
       <r>   12.1192    0.0000 </r>
       <r>   12.3531    0.0000 </r>
      </set>
      <set comment="kpoint 54">
       <r>   -2.2025    1.0000 </r>
       <r>    3.3914    1.0000 </r>
       <r>    3.3914    1.0000 </r>
       <r>    3.5015    1.0000 </r>
       <r>    8.7663   -0.0000 </r>
       <r>    8.8591   -0.0000 </r>
       <r>    8.8591   -0.0000 </r>
       <r>    9.8482    0.0000 </r>
       <r>    9.8482    0.0000 </r>
       <r>   10.0776    0.0000 </r>
       <r>   14.1638    0.0000 </r>
       <r>   14.3719    0.0000 </r>
      </set>
      <set comment="kpoint 55">
       <r>   -1.8311    1.0000 </r>
       <r>    2.1845    1.0000 </r>
       <r>    3.7470    1.0000 </r>
       <r>    3.8566    1.0000 </r>
       <r>    7.6214    1.0000 </r>
       <r>    7.7257    1.0000 </r>
       <r>    9.2389   -0.0000 </r>
       <r>   10.1654    0.0000 </r>
       <r>   10.4047    0.0000 </r>
       <r>   11.6647    0.0000 </r>
       <r>   13.0269    0.0000 </r>
       <r>   13.8366    0.0000 </r>
      </set>
      <set comment="kpoint 56">
       <r>   -1.3130    1.0000 </r>
       <r>    1.1031    1.0000 </r>
       <r>    4.2421    1.0000 </r>
       <r>    4.3507    1.0000 </r>
       <r>    6.5862    1.0000 </r>
       <r>    6.6923    1.0000 </r>
       <r>    9.7316    0.0000 </r>
       <r>   10.6332    0.0000 </r>
       <r>   10.8688    0.0000 </r>
       <r>   12.0078    0.0000 </r>
       <r>   12.9371    0.0000 </r>
       <r>   13.1729    0.0000 </r>
      </set>
      <set comment="kpoint 57">
       <r>   -0.6495    1.0000 </r>
       <r>    0.1569    1.0000 </r>
       <r>    4.8658    1.0000 </r>
       <r>    4.9676    1.0000 </r>
       <r>    5.6961    1.0000 </r>
       <r>    5.7971    1.0000 </r>
       <r>   10.3571    0.0000 </r>
       <r>   11.1165    0.0000 </r>
       <r>   11.2024    0.0000 </r>
       <r>   11.3898    0.0000 </r>
       <r>   12.1762    0.0000 </r>
       <r>   12.3637    0.0000 </r>
      </set>
      <set comment="kpoint 58">
       <r>   -1.4608    1.0000 </r>
       <r>    2.5442    1.0000 </r>
       <r>    2.5442    1.0000 </r>
       <r>    4.2091    1.0000 </r>
       <r>    6.4575    1.0000 </r>
       <r>    8.0820    0.0033 </r>
       <r>    8.0820    0.0033 </r>
       <r>   10.7526    0.0000 </r>
       <r>   11.8834    0.0000 </r>
       <r>   11.9973    0.0000 </r>
       <r>   11.9973    0.0000 </r>
       <r>   14.4085    0.0000 </r>
      </set>
      <set comment="kpoint 59">
       <r>   -0.9440    1.0000 </r>
       <r>    1.4658    1.0000 </r>
       <r>    3.0459    1.0000 </r>
       <r>    4.6866    1.0000 </r>
       <r>    5.4276    1.0000 </r>
       <r>    7.0434    1.0000 </r>
       <r>    8.5728   -0.0000 </r>
       <r>   10.8588    0.0000 </r>
       <r>   11.2320    0.0000 </r>
       <r>   12.4330    0.0000 </r>
       <r>   13.5417    0.0000 </r>
       <r>   13.9429    0.0000 </r>
      </set>
      <set comment="kpoint 60">
       <r>   -0.2822    1.0000 </r>
       <r>    0.5221    1.0000 </r>
       <r>    3.6870    1.0000 </r>
       <r>    4.4558    1.0000 </r>
       <r>    5.3761    1.0000 </r>
       <r>    6.1366    1.0000 </r>
       <r>    9.2001   -0.0000 </r>
       <r>    9.9629    0.0000 </r>
       <r>   11.8342    0.0000 </r>
       <r>   12.4937    0.0000 </r>
       <r>   13.2314    0.0000 </r>
       <r>   13.8651    0.0000 </r>
      </set>
      <set comment="kpoint 61">
       <r>   -0.4290    1.0000 </r>
       <r>    1.9720    1.0000 </r>
       <r>    1.9720    1.0000 </r>
       <r>    4.3175    1.0000 </r>
       <r>    5.2349    1.0000 </r>
       <r>    7.5342    1.0000 </r>
       <r>    7.5342    1.0000 </r>
       <r>    9.8293    0.0000 </r>
       <r>   11.7177    0.0000 </r>
       <r>   13.8512    0.0000 </r>
       <r>   13.8512    0.0000 </r>
       <r>   14.5453    0.0000 </r>
      </set>
      <set comment="kpoint 62">
       <r>    0.2304    1.0000 </r>
       <r>    1.0318    1.0000 </r>
       <r>    2.6198    1.0000 </r>
       <r>    3.4058    1.0000 </r>
       <r>    5.8563    1.0000 </r>
       <r>    6.6267    1.0000 </r>
       <r>    8.1634   -0.0014 </r>
       <r>    8.9293   -0.0000 </r>
       <r>   12.3299    0.0000 </r>
       <r>   13.0596    0.0000 </r>
       <r>   14.5191    0.0000 </r>
       <r>   15.0634    0.0000 </r>
      </set>
      <set comment="kpoint 63">
       <r>    0.8867    1.0000 </r>
       <r>    1.6843    1.0000 </r>
       <r>    1.6843    1.0000 </r>
       <r>    2.4771    1.0000 </r>
       <r>    6.4871    1.0000 </r>
       <r>    7.2575    1.0000 </r>
       <r>    7.2575    1.0000 </r>
       <r>    8.0260    0.7363 </r>
       <r>   12.9449    0.0000 </r>
       <r>   13.6798    0.0000 </r>
       <r>   13.6798    0.0000 </r>
       <r>   14.4134    0.0000 </r>
      </set>
      <set comment="kpoint 64">
       <r>   -2.4181    1.0000 </r>
       <r>    1.6948    1.0000 </r>
       <r>    5.7256    1.0000 </r>
       <r>    5.7256    1.0000 </r>
       <r>    7.0717    1.0000 </r>
       <r>    7.0717    1.0000 </r>
       <r>    9.5828    0.0000 </r>
       <r>    9.5828    0.0000 </r>
       <r>   11.1376    0.0000 </r>
       <r>   11.1376    0.0000 </r>
       <r>   11.3598    0.0000 </r>
       <r>   13.9501    0.0000 </r>
      </set>
      <set comment="kpoint 65">
       <r>   -2.3437    1.0000 </r>
       <r>    1.7671    1.0000 </r>
       <r>    4.7662    1.0000 </r>
       <r>    5.7941    1.0000 </r>
       <r>    7.1293    1.0000 </r>
       <r>    8.1534   -0.0032 </r>
       <r>    8.7325   -0.0000 </r>
       <r>    9.6518    0.0000 </r>
       <r>   11.2131    0.0000 </r>
       <r>   11.4197    0.0000 </r>
       <r>   12.1167    0.0000 </r>
       <r>   12.6111    0.0000 </r>
      </set>
      <set comment="kpoint 66">
       <r>   -2.1206    1.0000 </r>
       <r>    1.9836    1.0000 </r>
       <r>    3.4700    1.0000 </r>
       <r>    5.9998    1.0000 </r>
       <r>    7.1375    1.0000 </r>
       <r>    7.6997    1.0000 </r>
       <r>    9.8015    0.0000 </r>
       <r>    9.8587    0.0000 </r>
       <r>   11.3007    0.0000 </r>
       <r>   11.4537    0.0000 </r>
       <r>   11.5728    0.0000 </r>
       <r>   12.7733    0.0000 </r>
      </set>
      <set comment="kpoint 67">
       <r>   -1.7495    1.0000 </r>
       <r>    2.2638    1.0000 </r>
       <r>    2.3438    1.0000 </r>
       <r>    6.2122    1.0000 </r>
       <r>    6.3428    1.0000 </r>
       <r>    7.8165    1.0000 </r>
       <r>   10.1279    0.0000 </r>
       <r>   10.2036    0.0000 </r>
       <r>   11.3666    0.0000 </r>
       <r>   11.4124    0.0000 </r>
       <r>   12.0789    0.0000 </r>
       <r>   12.2244    0.0000 </r>
      </set>
      <set comment="kpoint 68">
       <r>   -1.2316    1.0000 </r>
       <r>    1.1831    1.0000 </r>
       <r>    2.8464    1.0000 </r>
       <r>    5.1842    1.0000 </r>
       <r>    6.8234    1.0000 </r>
       <r>    8.2951   -0.0000 </r>
       <r>    9.0939   -0.0000 </r>
       <r>   10.5509    0.0000 </r>
       <r>   10.6863    0.0000 </r>
       <r>   12.1063    0.0000 </r>
       <r>   12.5697    0.0000 </r>
       <r>   12.9590    0.0000 </r>
      </set>
      <set comment="kpoint 69">
       <r>   -0.5685    1.0000 </r>
       <r>    0.2374    1.0000 </r>
       <r>    3.4898    1.0000 </r>
       <r>    4.2709    1.0000 </r>
       <r>    7.4419    1.0000 </r>
       <r>    8.1986   -0.0000 </r>
       <r>    8.9249   -0.0000 </r>
       <r>    9.6847    0.0000 </r>
       <r>   11.3067    0.0000 </r>
       <r>   12.0645    0.0000 </r>
       <r>   12.7477    0.0000 </r>
       <r>   13.1500    0.0000 </r>
      </set>
      <set comment="kpoint 70">
       <r>   -2.2693    1.0000 </r>
       <r>    1.8393    1.0000 </r>
       <r>    4.8360    1.0000 </r>
       <r>    4.8360    1.0000 </r>
       <r>    8.1740   -0.0005 </r>
       <r>    8.1740   -0.0005 </r>
       <r>    8.8421   -0.0000 </r>
       <r>    8.8421   -0.0000 </r>
       <r>   11.4014    0.0000 </r>
       <r>   11.7579    0.0000 </r>
       <r>   12.1870    0.0000 </r>
       <r>   12.1870    0.0000 </r>
      </set>
      <set comment="kpoint 71">
       <r>   -2.0463    1.0000 </r>
       <r>    2.0557    1.0000 </r>
       <r>    3.5411    1.0000 </r>
       <r>    5.0447    1.0000 </r>
       <r>    7.4599    1.0000 </r>
       <r>    8.5308   -0.0000 </r>
       <r>    8.9341   -0.0000 </r>
       <r>    9.9620    0.0000 </r>
       <r>   10.3781    0.0000 </r>
       <r>   11.7261    0.0000 </r>
       <r>   12.4003    0.0000 </r>
       <r>   13.6806    0.0000 </r>
      </set>
      <set comment="kpoint 72">
       <r>   -1.6754    1.0000 </r>
       <r>    2.3358    1.0000 </r>
       <r>    2.4157    1.0000 </r>
       <r>    5.3841    1.0000 </r>
       <r>    6.3311    1.0000 </r>
       <r>    8.8553   -0.0000 </r>
       <r>    9.2303   -0.0000 </r>
       <r>    9.3050   -0.0000 </r>
       <r>   11.7401    0.0000 </r>
       <r>   11.9689    0.0000 </r>
       <r>   12.7433    0.0000 </r>
       <r>   12.7837    0.0000 </r>
      </set>
      <set comment="kpoint 73">
       <r>   -1.1577    1.0000 </r>
       <r>    1.2557    1.0000 </r>
       <r>    2.9180    1.0000 </r>
       <r>    5.2379    1.0000 </r>
       <r>    5.9241    1.0000 </r>
       <r>    8.1987   -0.0000 </r>
       <r>    9.3392   -0.0000 </r>
       <r>    9.7955    0.0000 </r>
       <r>   11.5379    0.0000 </r>
       <r>   12.0708    0.0000 </r>
       <r>   12.6667    0.0000 </r>
       <r>   13.0709    0.0000 </r>
      </set>
      <set comment="kpoint 74">
       <r>   -0.4950    1.0000 </r>
       <r>    0.3105    1.0000 </r>
       <r>    3.5607    1.0000 </r>
       <r>    4.3401    1.0000 </r>
       <r>    6.5343    1.0000 </r>
       <r>    7.2980    1.0000 </r>
       <r>    9.9601    0.0000 </r>
       <r>   10.4199    0.0000 </r>
       <r>   10.7058    0.0000 </r>
       <r>   11.1789    0.0000 </r>
       <r>   13.2226    0.0000 </r>
       <r>   13.7409    0.0000 </r>
      </set>
      <set comment="kpoint 75">
       <r>   -1.8236    1.0000 </r>
       <r>    2.2718    1.0000 </r>
       <r>    3.7541    1.0000 </r>
       <r>    3.7541    1.0000 </r>
       <r>    7.7032    1.0000 </r>
       <r>    7.7032    1.0000 </r>
       <r>    9.1421   -0.0000 </r>
       <r>   10.1720    0.0000 </r>
       <r>   10.1720    0.0000 </r>
       <r>   11.9386    0.0000 </r>
       <r>   13.0050    0.0000 </r>
       <r>   13.9336    0.0000 </r>
      </set>
      <set comment="kpoint 76">
       <r>   -1.4533    1.0000 </r>
       <r>    2.5514    1.0000 </r>
       <r>    2.6312    1.0000 </r>
       <r>    4.1074    1.0000 </r>
       <r>    6.5407    1.0000 </r>
       <r>    7.9833    1.0344 </r>
       <r>    8.0594    0.2060 </r>
       <r>   10.5180    0.0000 </r>
       <r>   11.8615    0.0000 </r>
       <r>   12.0031    0.0000 </r>
       <r>   12.2689    0.0000 </r>
       <r>   14.1855    0.0000 </r>
      </set>
      <set comment="kpoint 77">
       <r>   -0.9365    1.0000 </r>
       <r>    1.4732    1.0000 </r>
       <r>    3.1324    1.0000 </r>
       <r>    4.5906    1.0000 </r>
       <r>    5.5066    1.0000 </r>
       <r>    6.9437    1.0000 </r>
       <r>    8.5503   -0.0000 </r>
       <r>   10.8368    0.0000 </r>
       <r>   10.9981    0.0000 </r>
       <r>   12.6581    0.0000 </r>
       <r>   13.3582    0.0000 </r>
       <r>   13.9416    0.0000 </r>
      </set>
      <set comment="kpoint 78">
       <r>   -0.2748    1.0000 </r>
       <r>    0.5295    1.0000 </r>
       <r>    3.7726    1.0000 </r>
       <r>    4.5358    1.0000 </r>
       <r>    5.2804    1.0000 </r>
       <r>    6.0365    1.0000 </r>
       <r>    9.1777   -0.0000 </r>
       <r>    9.9406    0.0000 </r>
       <r>   11.6051    0.0000 </r>
       <r>   12.3104    0.0000 </r>
       <r>   13.4558    0.0000 </r>
       <r>   14.1341    0.0000 </r>
      </set>
      <set comment="kpoint 79">
       <r>   -1.0839    1.0000 </r>
       <r>    2.9099    1.0000 </r>
       <r>    2.9099    1.0000 </r>
       <r>    2.9893    1.0000 </r>
       <r>    6.8155    1.0000 </r>
       <r>    6.8925    1.0000 </r>
       <r>    6.8925    1.0000 </r>
       <r>   10.7125    0.0000 </r>
       <r>   12.3530    0.0000 </r>
       <r>   12.3530    0.0000 </r>
       <r>   12.6212    0.0000 </r>
       <r>   15.3389    0.0000 </r>
      </set>
      <set comment="kpoint 80">
       <r>   -0.5684    1.0000 </r>
       <r>    1.8349    1.0000 </r>
       <r>    3.4091    1.0000 </r>
       <r>    3.4879    1.0000 </r>
       <r>    5.7695    1.0000 </r>
       <r>    5.8468    1.0000 </r>
       <r>    7.3841    1.0000 </r>
       <r>    9.6822    0.0000 </r>
       <r>   12.8232    0.0000 </r>
       <r>   13.0879    0.0000 </r>
       <r>   14.3117    0.0000 </r>
       <r>   14.9684    0.0000 </r>
      </set>
      <set comment="kpoint 81">
       <r>    0.0915    1.0000 </r>
       <r>    0.8937    1.0000 </r>
       <r>    4.0386    1.0000 </r>
       <r>    4.1130    1.0000 </r>
       <r>    4.8689    1.0000 </r>
       <r>    4.9427    1.0000 </r>
       <r>    8.0143    0.8839 </r>
       <r>    8.7813   -0.0000 </r>
       <r>   13.3948    0.0000 </r>
       <r>   13.6162    0.0000 </r>
       <r>   14.2715    0.0000 </r>
       <r>   14.4917    0.0000 </r>
      </set>
      <set comment="kpoint 82">
       <r>   -0.0548    1.0000 </r>
       <r>    2.3396    1.0000 </r>
       <r>    2.3396    1.0000 </r>
       <r>    3.9718    1.0000 </r>
       <r>    4.7296    1.0000 </r>
       <r>    6.3385    1.0000 </r>
       <r>    6.3385    1.0000 </r>
       <r>    8.6469   -0.0000 </r>
       <r>   13.5709    0.0000 </r>
       <r>   14.7554    0.0000 </r>
       <r>   14.7554    0.0000 </r>
       <r>   15.6959    0.0000 </r>
      </set>
      <set comment="kpoint 83">
       <r>    0.6028    1.0000 </r>
       <r>    1.4021    1.0000 </r>
       <r>    2.9846    1.0000 </r>
       <r>    3.7594    1.0000 </r>
       <r>    4.6585    1.0000 </r>
       <r>    5.4254    1.0000 </r>
       <r>    6.9710    1.0000 </r>
       <r>    7.7416    1.0000 </r>
       <r>   14.1649    0.0000 </r>
       <r>   14.8253    0.0000 </r>
       <r>   15.4418    0.0000 </r>
       <r>   16.0248    0.0000 </r>
      </set>
      <set comment="kpoint 84">
       <r>    1.2574    1.0000 </r>
       <r>    2.0528    1.0000 </r>
       <r>    2.0528    1.0000 </r>
       <r>    2.8425    1.0000 </r>
       <r>    5.2843    1.0000 </r>
       <r>    6.0591    1.0000 </r>
       <r>    6.0591    1.0000 </r>
       <r>    6.8324    1.0000 </r>
       <r>   14.7694    0.0000 </r>
       <r>   15.4739    0.0000 </r>
       <r>   15.4739    0.0000 </r>
       <r>   16.1823    0.0000 </r>
      </set>
      <set comment="kpoint 85">
       <r>   -1.8872    1.0000 </r>
       <r>    0.5874    1.0000 </r>
       <r>    6.2152    1.0000 </r>
       <r>    6.2152    1.0000 </r>
       <r>    7.5565    1.0000 </r>
       <r>    7.5565    1.0000 </r>
       <r>    8.5290   -0.0000 </r>
       <r>    8.5290   -0.0000 </r>
       <r>   10.1451    0.0000 </r>
       <r>   10.1451    0.0000 </r>
       <r>   13.3845    0.0000 </r>
       <r>   14.4832    0.0000 </r>
      </set>
      <set comment="kpoint 86">
       <r>   -1.8130    1.0000 </r>
       <r>    0.6603    1.0000 </r>
       <r>    5.2661    1.0000 </r>
       <r>    6.2838    1.0000 </r>
       <r>    7.4054    1.0000 </r>
       <r>    7.9029    1.0003 </r>
       <r>    8.5979   -0.0000 </r>
       <r>    8.6036   -0.0000 </r>
       <r>   10.2457    0.0000 </r>
       <r>   11.1173    0.0000 </r>
       <r>   13.1042    0.0000 </r>
       <r>   13.4123    0.0000 </r>
      </set>
      <set comment="kpoint 87">
       <r>   -1.5908    1.0000 </r>
       <r>    0.8787    1.0000 </r>
       <r>    3.9777    1.0000 </r>
       <r>    6.3226    1.0000 </r>
       <r>    6.4897    1.0000 </r>
       <r>    7.9604    1.0229 </r>
       <r>    8.8045   -0.0000 </r>
       <r>    9.9729    0.0000 </r>
       <r>   10.7593    0.0000 </r>
       <r>   11.7933    0.0000 </r>
       <r>   12.7191    0.0000 </r>
       <r>   13.0297    0.0000 </r>
      </set>
      <set comment="kpoint 88">
       <r>   -1.2211    1.0000 </r>
       <r>    1.2419    1.0000 </r>
       <r>    2.7770    1.0000 </r>
       <r>    5.1632    1.0000 </r>
       <r>    6.8330    1.0000 </r>
       <r>    8.3049   -0.0000 </r>
       <r>    9.1489   -0.0000 </r>
       <r>   10.5963    0.0000 </r>
       <r>   10.6202    0.0000 </r>
       <r>   12.0495    0.0000 </r>
       <r>   12.3225    0.0000 </r>
       <r>   12.9383    0.0000 </r>
      </set>
      <set comment="kpoint 89">
       <r>   -0.7051    1.0000 </r>
       <r>    1.7006    1.0000 </r>
       <r>    1.7489    1.0000 </r>
       <r>    4.1107    1.0000 </r>
       <r>    7.3140    1.0000 </r>
       <r>    8.8002   -0.0000 </r>
       <r>    9.5858    0.0000 </r>
       <r>    9.6313    0.0000 </r>
       <r>   11.0767    0.0000 </r>
       <r>   11.1210    0.0000 </r>
       <r>   11.9054    0.0000 </r>
       <r>   13.3614    0.0000 </r>
      </set>
      <set comment="kpoint 90">
       <r>   -0.0445    1.0000 </r>
       <r>    0.7584    1.0000 </r>
       <r>    2.3979    1.0000 </r>
       <r>    3.1864    1.0000 </r>
       <r>    7.9329    1.0047 </r>
       <r>    8.6901   -0.0000 </r>
       <r>    9.4336    0.0000 </r>
       <r>   10.1966    0.0000 </r>
       <r>   10.2515    0.0000 </r>
       <r>   11.0096    0.0000 </r>
       <r>   11.7504    0.0000 </r>
       <r>   12.4988    0.0000 </r>
      </set>
      <set comment="kpoint 91">
       <r>   -1.7389    1.0000 </r>
       <r>    0.7331    1.0000 </r>
       <r>    5.3347    1.0000 </r>
       <r>    5.3347    1.0000 </r>
       <r>    7.6682    1.0000 </r>
       <r>    7.6682    1.0000 </r>
       <r>    8.7789   -0.0000 </r>
       <r>    8.7789   -0.0000 </r>
       <r>   11.1949    0.0000 </r>
       <r>   11.1949    0.0000 </r>
       <r>   12.1311    0.0000 </r>
       <r>   13.5377    0.0000 </r>
      </set>
      <set comment="kpoint 92">
       <r>   -1.5167    1.0000 </r>
       <r>    0.9514    1.0000 </r>
       <r>    4.0483    1.0000 </r>
       <r>    5.5331    1.0000 </r>
       <r>    6.4403    1.0000 </r>
       <r>    7.9011    1.0003 </r>
       <r>    8.9961   -0.0000 </r>
       <r>   10.3699    0.0000 </r>
       <r>   10.8852    0.0000 </r>
       <r>   11.4578    0.0000 </r>
       <r>   12.7888    0.0000 </r>
       <r>   13.1979    0.0000 </r>
      </set>
      <set comment="kpoint 93">
       <r>   -1.1472    1.0000 </r>
       <r>    1.3144    1.0000 </r>
       <r>    2.8487    1.0000 </r>
       <r>    5.2181    1.0000 </r>
       <r>    5.9328    1.0000 </r>
       <r>    8.2541   -0.0000 </r>
       <r>    9.3489   -0.0000 </r>
       <r>    9.7296    0.0000 </r>
       <r>   11.5614    0.0000 </r>
       <r>   12.0504    0.0000 </r>
       <r>   12.4420    0.0000 </r>
       <r>   13.0318    0.0000 </r>
      </set>
      <set comment="kpoint 94">
       <r>   -0.6315    1.0000 </r>
       <r>    1.7729    1.0000 </r>
       <r>    1.8211    1.0000 </r>
       <r>    4.1802    1.0000 </r>
       <r>    6.4048    1.0000 </r>
       <r>    8.6968   -0.0000 </r>
       <r>    8.7426   -0.0000 </r>
       <r>    9.8387    0.0000 </r>
       <r>   11.0246    0.0000 </r>
       <r>   12.0825    0.0000 </r>
       <r>   12.1254    0.0000 </r>
       <r>   14.3140    0.0000 </r>
      </set>
      <set comment="kpoint 95">
       <r>    0.0287    1.0000 </r>
       <r>    0.8312    1.0000 </r>
       <r>    2.4698    1.0000 </r>
       <r>    3.2577    1.0000 </r>
       <r>    7.0306    1.0000 </r>
       <r>    7.7958    1.0000 </r>
       <r>    9.3679   -0.0000 </r>
       <r>   10.1292    0.0000 </r>
       <r>   10.4625    0.0000 </r>
       <r>   11.2144    0.0000 </r>
       <r>   12.7524    0.0000 </r>
       <r>   13.4957    0.0000 </r>
      </set>
      <set comment="kpoint 96">
       <r>   -1.2949    1.0000 </r>
       <r>    1.1693    1.0000 </r>
       <r>    4.2591    1.0000 </r>
       <r>    4.2591    1.0000 </r>
       <r>    6.6487    1.0000 </r>
       <r>    6.6487    1.0000 </r>
       <r>    9.6434    0.0000 </r>
       <r>   10.6479    0.0000 </r>
       <r>   10.6479    0.0000 </r>
       <r>   11.9655    0.0000 </r>
       <r>   13.0006    0.0000 </r>
       <r>   13.0006    0.0000 </r>
      </set>
      <set comment="kpoint 97">
       <r>   -0.9260    1.0000 </r>
       <r>    1.5318    1.0000 </r>
       <r>    3.0632    1.0000 </r>
       <r>    4.5998    1.0000 </r>
       <r>    5.4863    1.0000 </r>
       <r>    6.9997    1.0000 </r>
       <r>    8.4837   -0.0000 </r>
       <r>   10.8164    0.0000 </r>
       <r>   11.0075    0.0000 </r>
       <r>   12.4365    0.0000 </r>
       <r>   13.3815    0.0000 </r>
       <r>   14.2086    0.0000 </r>
      </set>
      <set comment="kpoint 98">
       <r>   -0.4111    1.0000 </r>
       <r>    1.9896    1.0000 </r>
       <r>    2.0377    1.0000 </r>
       <r>    4.3776    1.0000 </r>
       <r>    5.1478    1.0000 </r>
[...]
       <r>    0.2615    1.0000 </r>
       <r>    1.0789    1.0000 </r>
       <r>    2.6503    1.0000 </r>
       <r>    3.4518    1.0000 </r>
       <r>    5.7783    1.0000 </r>
       <r>    6.5646    1.0000 </r>
       <r>    8.0866   -0.0146 </r>
       <r>    8.8682   -0.0000 </r>
       <r>   12.1183    0.0000 </r>
       <r>   12.8662    0.0000 </r>
       <r>   14.3111    0.0000 </r>
       <r>   15.0572    0.0000 </r>
      </set>
      <set comment="kpoint 120">
       <r>    0.9176    1.0000 </r>
       <r>    1.7151    1.0000 </r>
       <r>    1.7312    1.0000 </r>
       <r>    2.5236    1.0000 </r>
       <r>    6.4094    1.0000 </r>
       <r>    7.1801    1.0000 </r>
       <r>    7.1956    1.0000 </r>
       <r>    7.9644    1.0266 </r>
       <r>   12.7331    0.0000 </r>
       <r>   13.4689    0.0000 </r>
       <r>   13.4846    0.0000 </r>
       <r>   14.2182    0.0000 </r>
      </set>
      <set comment="kpoint 121">
       <r>    0.1153    1.0000 </r>
       <r>    0.9336    1.0000 </r>
       <r>    4.0601    1.0000 </r>
       <r>    4.0601    1.0000 </r>
       <r>    4.9046    1.0000 </r>
       <r>    4.9046    1.0000 </r>
       <r>    7.9600    1.0225 </r>
       <r>    8.7426   -0.0000 </r>
       <r>   13.4024    0.0000 </r>
       <r>   13.4024    0.0000 </r>
       <r>   14.2846    0.0000 </r>
       <r>   14.2846    0.0000 </r>
      </set>
      <set comment="kpoint 122">
       <r>    0.6265    1.0000 </r>
       <r>    1.4418    1.0000 </r>
       <r>    3.0077    1.0000 </r>
       <r>    3.7961    1.0000 </r>
       <r>    4.6052    1.0000 </r>
       <r>    5.3860    1.0000 </r>
       <r>    6.9164    1.0000 </r>
       <r>    7.7026    1.0000 </r>
       <r>   13.9226    0.0000 </r>
       <r>   14.6211    0.0000 </r>
       <r>   15.4514    0.0000 </r>
       <r>   16.0071    0.0000 </r>
      </set>
      <set comment="kpoint 123">
       <r>    1.2809    1.0000 </r>
       <r>    2.0761    1.0000 </r>
       <r>    2.0922    1.0000 </r>
       <r>    2.8815    1.0000 </r>
       <r>    5.2292    1.0000 </r>
       <r>    6.0041    1.0000 </r>
       <r>    6.0197    1.0000 </r>
       <r>    6.7933    1.0000 </r>
       <r>   14.5264    0.0000 </r>
       <r>   15.2337    0.0000 </r>
       <r>   15.2512    0.0000 </r>
       <r>   15.9597    0.0000 </r>
      </set>
      <set comment="kpoint 124">
       <r>    1.1359    1.0000 </r>
       <r>    1.9480    1.0000 </r>
       <r>    3.4979    1.0000 </r>
       <r>    3.4979    1.0000 </r>
       <r>    4.3385    1.0000 </r>
       <r>    4.3385    1.0000 </r>
       <r>    5.8669    1.0000 </r>
       <r>    6.6570    1.0000 </r>
       <r>   15.8168    0.0000 </r>
       <r>   15.8168    0.0000 </r>
       <r>   16.5440    0.0000 </r>
       <r>   16.5440    0.0000 </r>
      </set>
      <set comment="kpoint 125">
       <r>    1.7879    1.0000 </r>
       <r>    2.5792    1.0000 </r>
       <r>    2.5952    1.0000 </r>
       <r>    3.3722    1.0000 </r>
       <r>    4.1804    1.0000 </r>
       <r>    4.9503    1.0000 </r>
       <r>    4.9659    1.0000 </r>
       <r>    5.7428    1.0000 </r>
       <r>   16.4104    0.0000 </r>
       <r>   17.0374    0.0000 </r>
       <r>   17.0655    0.0000 </r>
       <r>   17.7459    0.0000 </r>
      </set>
      <set comment="kpoint 126">
       <r>    2.4360    1.0000 </r>
       <r>    3.2153    1.0000 </r>
       <r>    3.2153    1.0000 </r>
       <r>    3.2306    1.0000 </r>
       <r>    4.0379    1.0000 </r>
       <r>    4.0531    1.0000 </r>
       <r>    4.0531    1.0000 </r>
       <r>    4.8251    1.0000 </r>
       <r>   18.2986    0.0000 </r>
       <r>   18.3007    0.0000 </r>
       <r>   18.4688    0.0000 </r>
       <r>   18.5934    0.0000 </r>
      </set>
     </set>
    </set>
   </array>
  </eigenvalues>
  <separator name="orbital magnetization" >
   <v name="MAGDIPOLOUT">      0.00000000      0.00000000      0.00000000</v>
  </separator>
  <dos>
   <i name="efermi">      8.04060315 </i>
   <total>
    <array>
     <dimension dim="1">gridpoints</dimension>
     <dimension dim="2">spin</dimension>
     <field>energy</field>
     <field>total</field>
     <field>integrated</field>
     <set>
      <set comment="spin 1">
       <r>    -4.1886     0.0000     0.0000 </r>
       <r>    -4.1090     0.0000     0.0000 </r>
       <r>    -4.0295     0.0000     0.0000 </r>
       <r>    -3.9499     0.0000     0.0000 </r>
       <r>    -3.8704     0.0000     0.0000 </r>
       <r>    -3.7908     0.0000     0.0000 </r>
       <r>    -3.7113     0.0000     0.0000 </r>
       <r>    -3.6317     0.0000     0.0000 </r>
       <r>    -3.5521    -0.0000    -0.0000 </r>
       <r>    -3.4726    -0.0000    -0.0000 </r>
       <r>    -3.3930    -0.0000    -0.0000 </r>
       <r>    -3.3135    -0.0000    -0.0000 </r>
       <r>    -3.2339    -0.0000    -0.0000 </r>
       <r>    -3.1544    -0.0006    -0.0000 </r>
       <r>    -3.0748     0.0157     0.0012 </r>
       <r>    -2.9953     0.1108     0.0100 </r>
       <r>    -2.9157     0.2308     0.0284 </r>
       <r>    -2.8361     0.1576     0.0409 </r>
       <r>    -2.7566     0.1488     0.0527 </r>
       <r>    -2.6770     0.4862     0.0914 </r>
       <r>    -2.5975     0.3931     0.1227 </r>
       <r>    -2.5179     0.0364     0.1256 </r>
       <r>    -2.4384     0.3579     0.1541 </r>
       <r>    -2.3588     0.5735     0.1997 </r>
       <r>    -2.2792     0.4881     0.2385 </r>
       <r>    -2.1997     0.3121     0.2634 </r>
       <r>    -2.1201     0.3264     0.2893 </r>
       <r>    -2.0406     0.8375     0.3559 </r>
       <r>    -1.9610     0.2752     0.3778 </r>
       <r>    -1.8815     0.0611     0.3827 </r>
       <r>    -1.8019     0.8315     0.4489 </r>
       <r>    -1.7224     0.7468     0.5083 </r>
       <r>    -1.6428     0.5063     0.5485 </r>
       <r>    -1.5632     0.5083     0.5890 </r>
       <r>    -1.4837     0.8998     0.6606 </r>
       <r>    -1.4041     0.4128     0.6934 </r>
       <r>    -1.3246     0.0893     0.7005 </r>
       <r>    -1.2450     0.5223     0.7421 </r>
       <r>    -1.1655     0.9376     0.8167 </r>
       <r>    -1.0859     1.1466     0.9079 </r>
       <r>    -1.0063     0.2532     0.9280 </r>
       <r>    -0.9268     0.8687     0.9971 </r>
       <r>    -0.8472     1.1767     1.0907 </r>
       <r>    -0.7677     0.2552     1.1110 </r>
       <r>    -0.6881     0.1792     1.1253 </r>
       <r>    -0.6086     0.8594     1.1937 </r>
       <r>    -0.5290     0.9970     1.2730 </r>
       <r>    -0.4495     0.9179     1.3460 </r>
       <r>    -0.3699     0.6364     1.3967 </r>
       <r>    -0.2903     0.6658     1.4496 </r>
       <r>    -0.2108     1.0589     1.5339 </r>
       <r>    -0.1312     0.1553     1.5462 </r>
       <r>    -0.0517     1.1215     1.6354 </r>
       <r>     0.0279     1.4921     1.7541 </r>
       <r>     0.1074     0.7029     1.8101 </r>
       <r>     0.1870     0.4546     1.8462 </r>
       <r>     0.2666     1.2201     1.9433 </r>
       <r>     0.3461     1.0403     2.0261 </r>
       <r>     0.4257     0.1670     2.0394 </r>
       <r>     0.5052     0.2578     2.0599 </r>
       <r>     0.5848     1.0776     2.1456 </r>
       <r>     0.6643     1.6169     2.2742 </r>
       <r>     0.7439     0.7875     2.3369 </r>
       <r>     0.8234     0.8940     2.4080 </r>
       <r>     0.9030     1.7236     2.5451 </r>
       <r>     0.9826     0.9142     2.6179 </r>
       <r>     1.0621     0.5645     2.6628 </r>
       <r>     1.1417     1.0274     2.7445 </r>
       <r>     1.2212     0.6291     2.7946 </r>
       <r>     1.3008     1.1593     2.8868 </r>
       <r>     1.3803     0.3650     2.9158 </r>
       <r>     1.4599     1.5056     3.0356 </r>
       <r>     1.5395     1.4419     3.1503 </r>
       <r>     1.6190     0.1539     3.1626 </r>
       <r>     1.6986     0.7901     3.2254 </r>
       <r>     1.7781     1.9673     3.3819 </r>
       <r>     1.8577     1.1892     3.4765 </r>
       <r>     1.9372     0.8645     3.5453 </r>
       <r>     2.0168     1.5022     3.6648 </r>
       <r>     2.0964     1.2951     3.7678 </r>
       <r>     2.1759     0.3077     3.7923 </r>
       <r>     2.2555     0.5897     3.8392 </r>
       <r>     2.3350     1.3903     3.9499 </r>
       <r>     2.4146     1.8134     4.0941 </r>
       <r>     2.4941     1.0858     4.1805 </r>
       <r>     2.5737     1.2373     4.2789 </r>
       <r>     2.6532     1.3817     4.3889 </r>
       <r>     2.7328     0.4907     4.4279 </r>
       <r>     2.8124     0.3913     4.4590 </r>
       <r>     2.8919     1.7027     4.5945 </r>
       <r>     2.9715     1.2230     4.6918 </r>
       <r>     3.0510     1.3323     4.7978 </r>
       <r>     3.1306     1.0898     4.8845 </r>
       <r>     3.2101     1.5820     5.0103 </r>
       <r>     3.2897     1.2270     5.1080 </r>
       <r>     3.3693     0.4656     5.1450 </r>
       <r>     3.4488     1.8947     5.2957 </r>
       <r>     3.5284     2.8102     5.5193 </r>
       <r>     3.6079     1.0501     5.6029 </r>
       <r>     3.6875     0.4148     5.6359 </r>
       <r>     3.7670     1.2640     5.7364 </r>
       <r>     3.8466     1.1092     5.8247 </r>
       <r>     3.9261     0.4589     5.8612 </r>
       <r>     4.0057     0.5379     5.9040 </r>
       <r>     4.0853     1.8642     6.0523 </r>
       <r>     4.1648     1.4571     6.1682 </r>
       <r>     4.2444     1.7158     6.3047 </r>
       <r>     4.3239     1.8582     6.4525 </r>
       <r>     4.4035     1.7736     6.5936 </r>
       <r>     4.4830     0.9593     6.6699 </r>
       <r>     4.5626     0.9659     6.7468 </r>
       <r>     4.6422     1.8524     6.8942 </r>
       <r>     4.7217     1.5671     7.0188 </r>
       <r>     4.8013     1.0823     7.1049 </r>
       <r>     4.8808     1.5241     7.2262 </r>
       <r>     4.9604     1.6382     7.3565 </r>
       <r>     5.0399     1.2526     7.4562 </r>
       <r>     5.1195     0.4760     7.4940 </r>
       <r>     5.1990     1.3866     7.6043 </r>
       <r>     5.2786     2.0735     7.7693 </r>
       <r>     5.3582     1.6773     7.9027 </r>
       <r>     5.4377     2.3952     8.0933 </r>
       <r>     5.5173     2.0770     8.2585 </r>
       <r>     5.5968     0.8819     8.3287 </r>
       <r>     5.6764     0.4693     8.3660 </r>
       <r>     5.7559     1.2274     8.4637 </r>
       <r>     5.8355     1.9637     8.6199 </r>
       <r>     5.9151     1.5090     8.7400 </r>
       <r>     5.9946     1.5197     8.8609 </r>
       <r>     6.0742     1.9228     9.0138 </r>
       <r>     6.1537     0.7435     9.0730 </r>
       <r>     6.2333     0.9265     9.1467 </r>
       <r>     6.3128     1.4024     9.2583 </r>
       <r>     6.3924     1.7623     9.3985 </r>
       <r>     6.4719     1.3526     9.5061 </r>
       <r>     6.5515     1.8379     9.6523 </r>
       <r>     6.6311     1.5586     9.7763 </r>
       <r>     6.7106     1.6962     9.9112 </r>
       <r>     6.7902     1.2238    10.0086 </r>
       <r>     6.8697     1.3487    10.1159 </r>
       <r>     6.9493     1.6853    10.2500 </r>
       <r>     7.0288     2.0921    10.4164 </r>
       <r>     7.1084     1.3844    10.5265 </r>
       <r>     7.1880     1.4391    10.6410 </r>
       <r>     7.2675     0.7389    10.6998 </r>
       <r>     7.3471     1.0535    10.7836 </r>
       <r>     7.4266     1.3283    10.8893 </r>
       <r>     7.5062     1.6941    11.0241 </r>
       <r>     7.5857     0.9734    11.1015 </r>
       <r>     7.6653     1.5527    11.2250 </r>
       <r>     7.7449     2.5799    11.4303 </r>
       <r>     7.8244     1.7593    11.5702 </r>
       <r>     7.9040     1.9119    11.7224 </r>
       <r>     7.9835     2.0860    11.8883 </r>
       <r>     8.0631     1.9320    12.0420 </r>
       <r>     8.1426     1.6373    12.1723 </r>
       <r>     8.2222     1.7403    12.3107 </r>
       <r>     8.3017     0.8311    12.3768 </r>
       <r>     8.3813     1.1357    12.4672 </r>
       <r>     8.4609     0.5454    12.5106 </r>
       <r>     8.5404     1.6909    12.6451 </r>
       <r>     8.6200     1.9098    12.7970 </r>
       <r>     8.6995     1.1903    12.8917 </r>
       <r>     8.7791     2.6648    13.1037 </r>
       <r>     8.8586     2.7828    13.3251 </r>
       <r>     8.9382     2.2752    13.5061 </r>
       <r>     9.0178     1.5575    13.6300 </r>
       <r>     9.0973     0.3167    13.6552 </r>
       <r>     9.1769     1.0447    13.7384 </r>
       <r>     9.2564     1.6691    13.8711 </r>
       <r>     9.3360     2.4028    14.0623 </r>
       <r>     9.4155     1.8365    14.2084 </r>
       <r>     9.4951     1.3776    14.3180 </r>
       <r>     9.5746     1.4506    14.4334 </r>
       <r>     9.6542     1.4500    14.5488 </r>
       <r>     9.7338     1.8315    14.6945 </r>
       <r>     9.8133     2.0848    14.8603 </r>
       <r>     9.8929     2.0413    15.0227 </r>
       <r>     9.9724     2.1723    15.1955 </r>
       <r>    10.0520     1.6227    15.3246 </r>
       <r>    10.1315     1.0651    15.4094 </r>
       <r>    10.2111     2.7475    15.6280 </r>
       <r>    10.2907     2.0321    15.7896 </r>
       <r>    10.3702     1.8202    15.9344 </r>
       <r>    10.4498     2.4561    16.1298 </r>
       <r>    10.5293     1.7760    16.2711 </r>
       <r>    10.6089     0.7834    16.3334 </r>
       <r>    10.6884     1.2003    16.4289 </r>
       <r>    10.7680     1.4038    16.5406 </r>
       <r>    10.8475     1.3251    16.6460 </r>
       <r>    10.9271     1.6611    16.7782 </r>
       <r>    11.0067     1.3012    16.8817 </r>
       <r>    11.0862     2.0164    17.0421 </r>
       <r>    11.1658     2.7537    17.2612 </r>
       <r>    11.2453     3.1388    17.5109 </r>
       <r>    11.3249     2.0653    17.6752 </r>
       <r>    11.4044     1.7952    17.8180 </r>
       <r>    11.4840     2.7797    18.0392 </r>
       <r>    11.5636     1.1824    18.1332 </r>
       <r>    11.6431     1.9363    18.2873 </r>
       <r>    11.7227     1.1330    18.3774 </r>
       <r>    11.8022     1.3627    18.4858 </r>
       <r>    11.8818     1.9510    18.6411 </r>
       <r>    11.9613     1.4626    18.7574 </r>
       <r>    12.0409     1.9952    18.9161 </r>
       <r>    12.1205     3.2369    19.1737 </r>
       <r>    12.2000     2.3128    19.3577 </r>
       <r>    12.2796     1.7316    19.4954 </r>
       <r>    12.3591     2.9902    19.7333 </r>
       <r>    12.4387     2.2158    19.9096 </r>
       <r>    12.5182     1.6208    20.0385 </r>
       <r>    12.5978     0.7678    20.0996 </r>
       <r>    12.6773     1.2827    20.2017 </r>
       <r>    12.7569     2.2023    20.3769 </r>
       <r>    12.8365     1.9207    20.5297 </r>
       <r>    12.9160     2.1181    20.6982 </r>
       <r>    12.9956     2.1262    20.8673 </r>
       <r>    13.0751     2.1191    21.0359 </r>
       <r>    13.1547     1.5199    21.1568 </r>
       <r>    13.2342     2.5516    21.3598 </r>
       <r>    13.3138     2.1186    21.5284 </r>
       <r>    13.3934     1.8303    21.6740 </r>
       <r>    13.4729     1.6788    21.8076 </r>
       <r>    13.5525     1.6277    21.9371 </r>
       <r>    13.6320     1.2023    22.0327 </r>
       <r>    13.7116     2.2703    22.2133 </r>
       <r>    13.7911     0.8083    22.2776 </r>
       <r>    13.8707     1.1704    22.3707 </r>
       <r>    13.9502     1.6380    22.5011 </r>
       <r>    14.0298     0.4733    22.5387 </r>
       <r>    14.1094     0.0629    22.5437 </r>
       <r>    14.1889     0.9292    22.6176 </r>
       <r>    14.2685     0.9613    22.6941 </r>
       <r>    14.3480     1.5826    22.8200 </r>
       <r>    14.4276     0.5104    22.8606 </r>
       <r>    14.5071     0.5628    22.9054 </r>
       <r>    14.5867     1.3681    23.0143 </r>
       <r>    14.6663     0.8504    23.0819 </r>
       <r>    14.7458     0.1993    23.0978 </r>
       <r>    14.8254     0.7130    23.1545 </r>
       <r>    14.9049     0.1218    23.1642 </r>
       <r>    14.9845     0.2250    23.1821 </r>
       <r>    15.0640     0.9428    23.2571 </r>
       <r>    15.1436     0.5231    23.2987 </r>
       <r>    15.2231     0.2984    23.3224 </r>
       <r>    15.3027     0.8469    23.3898 </r>
       <r>    15.3823     0.0898    23.3970 </r>
       <r>    15.4618     0.5962    23.4444 </r>
       <r>    15.5414     0.7481    23.5039 </r>
       <r>    15.6209     0.0347    23.5067 </r>
       <r>    15.7005     0.2004    23.5226 </r>
       <r>    15.7800     0.3050    23.5469 </r>
       <r>    15.8596     0.5641    23.5918 </r>
       <r>    15.9392     0.0313    23.5943 </r>
       <r>    16.0187     0.6622    23.6469 </r>
       <r>    16.0983     0.8020    23.7107 </r>
       <r>    16.1778     0.0751    23.7167 </r>
       <r>    16.2574     0.0896    23.7238 </r>
       <r>    16.3369    -0.0129    23.7228 </r>
       <r>    16.4165     0.1874    23.7377 </r>
       <r>    16.4960     0.1954    23.7533 </r>
       <r>    16.5756     0.5224    23.7948 </r>
       <r>    16.6552     0.0233    23.7967 </r>
       <r>    16.7347     0.3055    23.8210 </r>
       <r>    16.8143     0.2945    23.8444 </r>
       <r>    16.8938    -0.0086    23.8437 </r>
       <r>    16.9734    -0.0146    23.8426 </r>
       <r>    17.0529     0.3300    23.8688 </r>
       <r>    17.1325     0.3024    23.8929 </r>
       <r>    17.2121    -0.0201    23.8913 </r>
       <r>    17.2916     0.1497    23.9032 </r>
       <r>    17.3712     0.1666    23.9165 </r>
       <r>    17.4507    -0.0075    23.9159 </r>
       <r>    17.5303    -0.0000    23.9159 </r>
       <r>    17.6098    -0.0001    23.9158 </r>
       <r>    17.6894    -0.0128    23.9148 </r>
       <r>    17.7690     0.3278    23.9409 </r>
       <r>    17.8485     0.1449    23.9524 </r>
       <r>    17.9281    -0.0065    23.9519 </r>
       <r>    18.0076    -0.0000    23.9519 </r>
       <r>    18.0872    -0.0000    23.9519 </r>
       <r>    18.1667    -0.0002    23.9519 </r>
       <r>    18.2463    -0.0091    23.9512 </r>
       <r>    18.3258     0.2759    23.9731 </r>
       <r>    18.4054     0.0319    23.9757 </r>
       <r>    18.4850     0.1176    23.9850 </r>
       <r>    18.5645     0.0523    23.9892 </r>
       <r>    18.6441     0.1399    24.0003 </r>
       <r>    18.7236    -0.0039    24.0000 </r>
       <r>    18.8032    -0.0001    24.0000 </r>
       <r>    18.8827    -0.0000    24.0000 </r>
       <r>    18.9623    -0.0000    24.0000 </r>
       <r>    19.0419     0.0000    24.0000 </r>
       <r>    19.1214     0.0000    24.0000 </r>
       <r>    19.2010     0.0000    24.0000 </r>
       <r>    19.2805     0.0000    24.0000 </r>
       <r>    19.3601     0.0000    24.0000 </r>
       <r>    19.4396     0.0000    24.0000 </r>
       <r>    19.5192     0.0000    24.0000 </r>
       <r>    19.5987     0.0000    24.0000 </r>
       <r>    19.6783     0.0000    24.0000 </r>
      </set>
     </set>
    </array>
   </total>
  </dos>
 </calculation>
 <structure name="finalpos" >
  <crystal>
   <varray name="basis" >
    <v>       4.04336400       0.00000000       0.00000000 </v>
    <v>       0.00000000       4.04336400       0.00000000 </v>
    <v>       0.00000000       0.00000000       4.00272600 </v>
   </varray>
   <i name="volume">     65.43973655 </i>
   <varray name="rec_basis" >
    <v>       0.24731882       0.00000000       0.00000000 </v>
    <v>       0.00000000       0.24731882       0.00000000 </v>
    <v>       0.00000000       0.00000000       0.24982974 </v>
   </varray>
  </crystal>
  <varray name="positions" >
   <v>       0.00000000       0.00000000       0.00000000 </v>
   <v>       0.00000000       0.50000000       0.50000000 </v>
   <v>       0.50000000       0.00000000       0.50000000 </v>
   <v>       0.50000000       0.50000000       0.00000000 </v>
  </varray>
 </structure>
</modeling>
