<?xml version="1.0" encoding="ISO-8859-1"?>
<modeling>
 <generator>
  <i name="program" type="string">vasp </i>
  <i name="version" type="string">5.4.4.18Apr17-6-g9f103f2a35  </i>
  <i name="subversion" type="string">(build Jun 11 2017 21:30:58) complex            parallel </i>
  <i name="platform" type="string">LinuxIFC </i>
  <i name="date" type="string">2022 07 07 </i>
  <i name="time" type="string">18:39:29 </i>
 </generator>
 <incar>
  <i type="string" name="PREC">accurate</i>
  <i type="string" name="ALGO"> Normal</i>
  <i type="logical" name="ADDGRID"> T  </i>
  <i type="int" name="NELM">   100</i>
  <i type="int" name="NELMIN">     4</i>
  <i type="int" name="IBRION">    -1</i>
  <i name="EDIFF">      0.00005000</i>
  <i name="ENCUT">    520.00000000</i>
  <i type="logical" name="LREAL"> F  </i>
  <i type="int" name="ISMEAR">     1</i>
  <i name="SIGMA">      0.05000000</i>
  <i type="logical" name="LWAVE"> F  </i>
  <i type="logical" name="LCHARG"> F  </i>
  <i type="logical" name="LASPH"> T  </i>
  <v type="int" name="KPOINT_BSE">    -1     0     0     0</v>
  <i type="int" name="NELM">   100</i>
  <i type="logical" name="LASPH"> T  </i>
 </incar>
 <structure name="primitive_cell" >
  <crystal>
   <varray name="basis" >
    <v>      -0.24260200      -2.00707300       2.02168200 </v>
    <v>       0.24260200       2.00707300       2.02168200 </v>
    <v>      -2.02168200       0.00000000      -2.02168200 </v>
   </varray>
   <i name="volume">     16.40660994 </i>
   <varray name="rec_basis" >
    <v>      -0.24731882      -0.21922469       0.24731882 </v>
    <v>      -0.24731882       0.27901329       0.24731882 </v>
    <v>      -0.49463763       0.05978860       0.00000000 </v>
   </varray>
  </crystal>
  <varray name="positions" >
   <v>       0.00000000       0.00000000       0.00000000 </v>
  </varray>
 </structure>
 <varray name="primitive_index" >
  <v type="int" >        1 </v>
 </varray>
 <kpoints>
  <generation param="Gamma">
   <v type="int" name="divisions">      11       11       11 </v>
   <v name="usershift">      0.00000000       0.00000000       0.00000000 </v>
   <v name="genvec1">      0.09090909       0.00000000       0.00000000 </v>
   <v name="genvec2">      0.00000000       0.09090909       0.00000000 </v>
   <v name="genvec3">      0.00000000       0.00000000       0.09090909 </v>
   <v name="shift">      0.00000000       0.00000000       0.00000000 </v>
  </generation>
  <varray name="kpointlist" >
   <v>       0.00000000       0.00000000       0.00000000 </v>
   <v>       0.09090909       0.00000000       0.00000000 </v>
   <v>       0.18181818       0.00000000       0.00000000 </v>
   <v>       0.27272727       0.00000000       0.00000000 </v>
   <v>       0.36363636       0.00000000       0.00000000 </v>
   <v>       0.45454545       0.00000000       0.00000000 </v>
   <v>       0.09090909       0.09090909       0.00000000 </v>
   <v>       0.18181818       0.09090909       0.00000000 </v>
   <v>       0.27272727       0.09090909       0.00000000 </v>
   <v>       0.36363636       0.09090909       0.00000000 </v>
   <v>       0.45454545       0.09090909       0.00000000 </v>
   <v>      -0.45454545       0.09090909       0.00000000 </v>
   <v>      -0.36363636       0.09090909       0.00000000 </v>
   <v>      -0.27272727       0.09090909       0.00000000 </v>
   <v>      -0.18181818       0.09090909       0.00000000 </v>
   <v>      -0.09090909       0.09090909       0.00000000 </v>
   <v>       0.18181818       0.18181818       0.00000000 </v>
   <v>       0.27272727       0.18181818       0.00000000 </v>
   <v>       0.36363636       0.18181818       0.00000000 </v>
   <v>       0.45454545       0.18181818       0.00000000 </v>
   <v>      -0.45454545       0.18181818       0.00000000 </v>
   <v>      -0.36363636       0.18181818       0.00000000 </v>
   <v>      -0.27272727       0.18181818       0.00000000 </v>
   <v>      -0.18181818       0.18181818       0.00000000 </v>
   <v>       0.27272727       0.27272727       0.00000000 </v>
   <v>       0.36363636       0.27272727       0.00000000 </v>
   <v>       0.45454545       0.27272727       0.00000000 </v>
   <v>      -0.45454545       0.27272727       0.00000000 </v>
   <v>      -0.36363636       0.27272727       0.00000000 </v>
   <v>      -0.27272727       0.27272727       0.00000000 </v>
   <v>       0.36363636       0.36363636       0.00000000 </v>
   <v>       0.45454545       0.36363636       0.00000000 </v>
   <v>      -0.45454545       0.36363636       0.00000000 </v>
   <v>      -0.36363636       0.36363636       0.00000000 </v>
   <v>       0.45454545       0.45454545       0.00000000 </v>
   <v>      -0.45454545       0.45454545       0.00000000 </v>
   <v>       0.00000000       0.00000000       0.09090909 </v>
   <v>       0.09090909       0.00000000       0.09090909 </v>
   <v>       0.18181818       0.00000000       0.09090909 </v>
   <v>       0.27272727       0.00000000       0.09090909 </v>
   <v>       0.36363636       0.00000000       0.09090909 </v>
   <v>       0.45454545       0.00000000       0.09090909 </v>
   <v>       0.09090909       0.09090909       0.09090909 </v>
   <v>       0.18181818       0.09090909       0.09090909 </v>
   <v>       0.27272727       0.09090909       0.09090909 </v>
   <v>       0.36363636       0.09090909       0.09090909 </v>
   <v>       0.45454545       0.09090909       0.09090909 </v>
   <v>      -0.45454545       0.09090909       0.09090909 </v>
   <v>      -0.36363636       0.09090909       0.09090909 </v>
   <v>      -0.27272727       0.09090909       0.09090909 </v>
   <v>      -0.18181818       0.09090909       0.09090909 </v>
   <v>      -0.09090909       0.09090909       0.09090909 </v>
   <v>       0.18181818       0.18181818       0.09090909 </v>
   <v>       0.27272727       0.18181818       0.09090909 </v>
   <v>       0.36363636       0.18181818       0.09090909 </v>
   <v>       0.45454545       0.18181818       0.09090909 </v>
   <v>      -0.45454545       0.18181818       0.09090909 </v>
   <v>      -0.36363636       0.18181818       0.09090909 </v>
   <v>      -0.27272727       0.18181818       0.09090909 </v>
   <v>      -0.18181818       0.18181818       0.09090909 </v>
   <v>       0.27272727       0.27272727       0.09090909 </v>
   <v>       0.36363636       0.27272727       0.09090909 </v>
   <v>       0.45454545       0.27272727       0.09090909 </v>
   <v>      -0.45454545       0.27272727       0.09090909 </v>
   <v>      -0.36363636       0.27272727       0.09090909 </v>
   <v>      -0.27272727       0.27272727       0.09090909 </v>
   <v>       0.36363636       0.36363636       0.09090909 </v>
   <v>       0.45454545       0.36363636       0.09090909 </v>
   <v>      -0.45454545       0.36363636       0.09090909 </v>
   <v>      -0.36363636       0.36363636       0.09090909 </v>
   <v>       0.45454545       0.45454545       0.09090909 </v>
   <v>      -0.45454545       0.45454545       0.09090909 </v>
   <v>       0.00000000       0.00000000       0.18181818 </v>
   <v>       0.09090909       0.00000000       0.18181818 </v>
   <v>       0.18181818       0.00000000       0.18181818 </v>
   <v>       0.27272727       0.00000000       0.18181818 </v>
   <v>       0.36363636       0.00000000       0.18181818 </v>
   <v>       0.45454545       0.00000000       0.18181818 </v>
   <v>       0.09090909       0.09090909       0.18181818 </v>
   <v>       0.18181818       0.09090909       0.18181818 </v>
   <v>       0.27272727       0.09090909       0.18181818 </v>
   <v>       0.36363636       0.09090909       0.18181818 </v>
   <v>       0.45454545       0.09090909       0.18181818 </v>
   <v>      -0.45454545       0.09090909       0.18181818 </v>
   <v>      -0.36363636       0.09090909       0.18181818 </v>
   <v>      -0.27272727       0.09090909       0.18181818 </v>
   <v>      -0.18181818       0.09090909       0.18181818 </v>
   <v>      -0.09090909       0.09090909       0.18181818 </v>
   <v>       0.18181818       0.18181818       0.18181818 </v>
   <v>       0.27272727       0.18181818       0.18181818 </v>
   <v>       0.36363636       0.18181818       0.18181818 </v>
   <v>       0.45454545       0.18181818       0.18181818 </v>
   <v>      -0.45454545       0.18181818       0.18181818 </v>
   <v>      -0.36363636       0.18181818       0.18181818 </v>
   <v>      -0.27272727       0.18181818       0.18181818 </v>
   <v>      -0.18181818       0.18181818       0.18181818 </v>
   <v>       0.27272727       0.27272727       0.18181818 </v>
   <v>       0.36363636       0.27272727       0.18181818 </v>
   <v>       0.45454545       0.27272727       0.18181818 </v>
   <v>      -0.45454545       0.27272727       0.18181818 </v>
   <v>      -0.36363636       0.27272727       0.18181818 </v>
   <v>      -0.27272727       0.27272727       0.18181818 </v>
   <v>       0.36363636       0.36363636       0.18181818 </v>
   <v>       0.45454545       0.36363636       0.18181818 </v>
   <v>      -0.45454545       0.36363636       0.18181818 </v>
   <v>      -0.36363636       0.36363636       0.18181818 </v>
   <v>       0.45454545       0.45454545       0.18181818 </v>
   <v>      -0.45454545       0.45454545       0.18181818 </v>
   <v>       0.00000000       0.00000000       0.27272727 </v>
   <v>       0.09090909       0.00000000       0.27272727 </v>
   <v>       0.18181818       0.00000000       0.27272727 </v>
   <v>       0.27272727       0.00000000       0.27272727 </v>
   <v>       0.36363636       0.00000000       0.27272727 </v>
   <v>       0.45454545       0.00000000       0.27272727 </v>
   <v>       0.09090909       0.09090909       0.27272727 </v>
   <v>       0.18181818       0.09090909       0.27272727 </v>
   <v>       0.27272727       0.09090909       0.27272727 </v>
   <v>       0.36363636       0.09090909       0.27272727 </v>
   <v>       0.45454545       0.09090909       0.27272727 </v>
   <v>      -0.45454545       0.09090909       0.27272727 </v>
   <v>      -0.36363636       0.09090909       0.27272727 </v>
   <v>      -0.27272727       0.09090909       0.27272727 </v>
   <v>      -0.18181818       0.09090909       0.27272727 </v>
   <v>      -0.09090909       0.09090909       0.27272727 </v>
   <v>       0.18181818       0.18181818       0.27272727 </v>
   <v>       0.27272727       0.18181818       0.27272727 </v>
   <v>       0.36363636       0.18181818       0.27272727 </v>
   <v>       0.45454545       0.18181818       0.27272727 </v>
   <v>      -0.45454545       0.18181818       0.27272727 </v>
   <v>      -0.36363636       0.18181818       0.27272727 </v>
   <v>      -0.27272727       0.18181818       0.27272727 </v>
   <v>      -0.18181818       0.18181818       0.27272727 </v>
   <v>       0.27272727       0.27272727       0.27272727 </v>
   <v>       0.36363636       0.27272727       0.27272727 </v>
   <v>       0.45454545       0.27272727       0.27272727 </v>
   <v>      -0.45454545       0.27272727       0.27272727 </v>
   <v>      -0.36363636       0.27272727       0.27272727 </v>
   <v>      -0.27272727       0.27272727       0.27272727 </v>
   <v>       0.36363636       0.36363636       0.27272727 </v>
   <v>       0.45454545       0.36363636       0.27272727 </v>
   <v>      -0.45454545       0.36363636       0.27272727 </v>
   <v>      -0.36363636       0.36363636       0.27272727 </v>
   <v>       0.45454545       0.45454545       0.27272727 </v>
   <v>      -0.45454545       0.45454545       0.27272727 </v>
   <v>       0.00000000       0.00000000       0.36363636 </v>
   <v>       0.09090909       0.00000000       0.36363636 </v>
   <v>       0.18181818       0.00000000       0.36363636 </v>
   <v>       0.27272727       0.00000000       0.36363636 </v>
   <v>       0.36363636       0.00000000       0.36363636 </v>
   <v>       0.45454545       0.00000000       0.36363636 </v>
   <v>       0.09090909       0.09090909       0.36363636 </v>
   <v>       0.18181818       0.09090909       0.36363636 </v>
   <v>       0.27272727       0.09090909       0.36363636 </v>
   <v>       0.36363636       0.09090909       0.36363636 </v>
   <v>       0.45454545       0.09090909       0.36363636 </v>
   <v>      -0.45454545       0.09090909       0.36363636 </v>
   <v>      -0.36363636       0.09090909       0.36363636 </v>
   <v>      -0.27272727       0.09090909       0.36363636 </v>
   <v>      -0.18181818       0.09090909       0.36363636 </v>
   <v>      -0.09090909       0.09090909       0.36363636 </v>
   <v>       0.18181818       0.18181818       0.36363636 </v>
   <v>       0.27272727       0.18181818       0.36363636 </v>
   <v>       0.36363636       0.18181818       0.36363636 </v>
   <v>       0.45454545       0.18181818       0.36363636 </v>
   <v>      -0.45454545       0.18181818       0.36363636 </v>
   <v>      -0.36363636       0.18181818       0.36363636 </v>
   <v>      -0.27272727       0.18181818       0.36363636 </v>
   <v>      -0.18181818       0.18181818       0.36363636 </v>
   <v>       0.27272727       0.27272727       0.36363636 </v>
   <v>       0.36363636       0.27272727       0.36363636 </v>
   <v>       0.45454545       0.27272727       0.36363636 </v>
   <v>      -0.45454545       0.27272727       0.36363636 </v>
   <v>      -0.36363636       0.27272727       0.36363636 </v>
   <v>      -0.27272727       0.27272727       0.36363636 </v>
   <v>       0.36363636       0.36363636       0.36363636 </v>
   <v>       0.45454545       0.36363636       0.36363636 </v>
   <v>      -0.45454545       0.36363636       0.36363636 </v>
   <v>      -0.36363636       0.36363636       0.36363636 </v>
   <v>       0.45454545       0.45454545       0.36363636 </v>
   <v>      -0.45454545       0.45454545       0.36363636 </v>
   <v>       0.00000000       0.00000000       0.45454545 </v>
   <v>       0.09090909       0.00000000       0.45454545 </v>
   <v>       0.18181818       0.00000000       0.45454545 </v>
   <v>       0.27272727       0.00000000       0.45454545 </v>
   <v>       0.36363636       0.00000000       0.45454545 </v>
   <v>       0.45454545       0.00000000       0.45454545 </v>
   <v>       0.09090909       0.09090909       0.45454545 </v>
   <v>       0.18181818       0.09090909       0.45454545 </v>
   <v>       0.27272727       0.09090909       0.45454545 </v>
   <v>       0.36363636       0.09090909       0.45454545 </v>
   <v>       0.45454545       0.09090909       0.45454545 </v>
   <v>      -0.45454545       0.09090909       0.45454545 </v>
   <v>      -0.36363636       0.09090909       0.45454545 </v>
   <v>      -0.27272727       0.09090909       0.45454545 </v>
   <v>      -0.18181818       0.09090909       0.45454545 </v>
   <v>      -0.09090909       0.09090909       0.45454545 </v>
   <v>       0.18181818       0.18181818       0.45454545 </v>
   <v>       0.27272727       0.18181818       0.45454545 </v>
   <v>       0.36363636       0.18181818       0.45454545 </v>
   <v>       0.45454545       0.18181818       0.45454545 </v>
   <v>      -0.45454545       0.18181818       0.45454545 </v>
   <v>      -0.36363636       0.18181818       0.45454545 </v>
   <v>      -0.27272727       0.18181818       0.45454545 </v>
   <v>      -0.18181818       0.18181818       0.45454545 </v>
   <v>       0.27272727       0.27272727       0.45454545 </v>
   <v>       0.36363636       0.27272727       0.45454545 </v>
   <v>       0.45454545       0.27272727       0.45454545 </v>
   <v>      -0.45454545       0.27272727       0.45454545 </v>
   <v>      -0.36363636       0.27272727       0.45454545 </v>
   <v>      -0.27272727       0.27272727       0.45454545 </v>
   <v>       0.36363636       0.36363636       0.45454545 </v>
   <v>       0.45454545       0.36363636       0.45454545 </v>
   <v>      -0.45454545       0.36363636       0.45454545 </v>
   <v>      -0.36363636       0.36363636       0.45454545 </v>
   <v>       0.45454545       0.45454545       0.45454545 </v>
   <v>      -0.45454545       0.45454545       0.45454545 </v>
  </varray>
  <varray name="weights" >
   <v>       0.00075131 </v>
   <v>       0.00300526 </v>
   <v>       0.00300526 </v>
   <v>       0.00300526 </v>
   <v>       0.00300526 </v>
   <v>       0.00300526 </v>
   <v>       0.00150263 </v>
   <v>       0.00300526 </v>
   <v>       0.00300526 </v>
   <v>       0.00300526 </v>
   <v>       0.00300526 </v>
   <v>       0.00300526 </v>
   <v>       0.00300526 </v>
   <v>       0.00300526 </v>
   <v>       0.00300526 </v>
   <v>       0.00150263 </v>
   <v>       0.00150263 </v>
   <v>       0.00300526 </v>
   <v>       0.00300526 </v>
   <v>       0.00300526 </v>
   <v>       0.00300526 </v>
   <v>       0.00300526 </v>
   <v>       0.00300526 </v>
   <v>       0.00150263 </v>
   <v>       0.00150263 </v>
   <v>       0.00300526 </v>
   <v>       0.00300526 </v>
   <v>       0.00300526 </v>
   <v>       0.00300526 </v>
   <v>       0.00150263 </v>
   <v>       0.00150263 </v>
   <v>       0.00300526 </v>
   <v>       0.00300526 </v>
   <v>       0.00150263 </v>
   <v>       0.00150263 </v>
   <v>       0.00150263 </v>
   <v>       0.00150263 </v>
   <v>       0.00601052 </v>
   <v>       0.00601052 </v>
   <v>       0.00601052 </v>
   <v>       0.00601052 </v>
   <v>       0.00601052 </v>
   <v>       0.00300526 </v>
   <v>       0.00601052 </v>
   <v>       0.00601052 </v>
   <v>       0.00601052 </v>
   <v>       0.00601052 </v>
   <v>       0.00601052 </v>
   <v>       0.00601052 </v>
   <v>       0.00601052 </v>
   <v>       0.00601052 </v>
   <v>       0.00300526 </v>
   <v>       0.00300526 </v>
   <v>       0.00601052 </v>
   <v>       0.00601052 </v>
   <v>       0.00601052 </v>
   <v>       0.00601052 </v>
   <v>       0.00601052 </v>
   <v>       0.00601052 </v>
   <v>       0.00300526 </v>
   <v>       0.00300526 </v>
   <v>       0.00601052 </v>
   <v>       0.00601052 </v>
   <v>       0.00601052 </v>
   <v>       0.00601052 </v>
   <v>       0.00300526 </v>
   <v>       0.00300526 </v>
   <v>       0.00601052 </v>
   <v>       0.00601052 </v>
   <v>       0.00300526 </v>
   <v>       0.00300526 </v>
   <v>       0.00300526 </v>
   <v>       0.00150263 </v>
   <v>       0.00601052 </v>
   <v>       0.00601052 </v>
   <v>       0.00601052 </v>
   <v>       0.00601052 </v>
   <v>       0.00601052 </v>
   <v>       0.00300526 </v>
   <v>       0.00601052 </v>
   <v>       0.00601052 </v>
   <v>       0.00601052 </v>
   <v>       0.00601052 </v>
   <v>       0.00601052 </v>
   <v>       0.00601052 </v>
   <v>       0.00601052 </v>
   <v>       0.00601052 </v>
   <v>       0.00300526 </v>
   <v>       0.00300526 </v>
   <v>       0.00601052 </v>
   <v>       0.00601052 </v>
   <v>       0.00601052 </v>
   <v>       0.00601052 </v>
   <v>       0.00601052 </v>
   <v>       0.00601052 </v>
   <v>       0.00300526 </v>
   <v>       0.00300526 </v>
   <v>       0.00601052 </v>
   <v>       0.00601052 </v>
   <v>       0.00601052 </v>
   <v>       0.00601052 </v>
   <v>       0.00300526 </v>
   <v>       0.00300526 </v>
   <v>       0.00601052 </v>
   <v>       0.00601052 </v>
   <v>       0.00300526 </v>
   <v>       0.00300526 </v>
   <v>       0.00300526 </v>
   <v>       0.00150263 </v>
   <v>       0.00601052 </v>
   <v>       0.00601052 </v>
   <v>       0.00601052 </v>
   <v>       0.00601052 </v>
   <v>       0.00601052 </v>
   <v>       0.00300526 </v>
   <v>       0.00601052 </v>
   <v>       0.00601052 </v>
   <v>       0.00601052 </v>
   <v>       0.00601052 </v>
   <v>       0.00601052 </v>
   <v>       0.00601052 </v>
   <v>       0.00601052 </v>
   <v>       0.00601052 </v>
   <v>       0.00300526 </v>
   <v>       0.00300526 </v>
   <v>       0.00601052 </v>
   <v>       0.00601052 </v>
   <v>       0.00601052 </v>
   <v>       0.00601052 </v>
   <v>       0.00601052 </v>
   <v>       0.00601052 </v>
   <v>       0.00300526 </v>
   <v>       0.00300526 </v>
   <v>       0.00601052 </v>
   <v>       0.00601052 </v>
   <v>       0.00601052 </v>
   <v>       0.00601052 </v>
   <v>       0.00300526 </v>
   <v>       0.00300526 </v>
   <v>       0.00601052 </v>
   <v>       0.00601052 </v>
   <v>       0.00300526 </v>
   <v>       0.00300526 </v>
   <v>       0.00300526 </v>
   <v>       0.00150263 </v>
   <v>       0.00601052 </v>
   <v>       0.00601052 </v>
   <v>       0.00601052 </v>
   <v>       0.00601052 </v>
   <v>       0.00601052 </v>
   <v>       0.00300526 </v>
   <v>       0.00601052 </v>
   <v>       0.00601052 </v>
   <v>       0.00601052 </v>
   <v>       0.00601052 </v>
   <v>       0.00601052 </v>
   <v>       0.00601052 </v>
   <v>       0.00601052 </v>
   <v>       0.00601052 </v>
   <v>       0.00300526 </v>
   <v>       0.00300526 </v>
   <v>       0.00601052 </v>
   <v>       0.00601052 </v>
   <v>       0.00601052 </v>
   <v>       0.00601052 </v>
   <v>       0.00601052 </v>
   <v>       0.00601052 </v>
   <v>       0.00300526 </v>
   <v>       0.00300526 </v>
   <v>       0.00601052 </v>
   <v>       0.00601052 </v>
   <v>       0.00601052 </v>
   <v>       0.00601052 </v>
   <v>       0.00300526 </v>
   <v>       0.00300526 </v>
   <v>       0.00601052 </v>
   <v>       0.00601052 </v>
   <v>       0.00300526 </v>
   <v>       0.00300526 </v>
   <v>       0.00300526 </v>
   <v>       0.00150263 </v>
   <v>       0.00601052 </v>
   <v>       0.00601052 </v>
   <v>       0.00601052 </v>
   <v>       0.00601052 </v>
   <v>       0.00601052 </v>
   <v>       0.00300526 </v>
   <v>       0.00601052 </v>
   <v>       0.00601052 </v>
   <v>       0.00601052 </v>
   <v>       0.00601052 </v>
   <v>       0.00601052 </v>
   <v>       0.00601052 </v>
   <v>       0.00601052 </v>
   <v>       0.00601052 </v>
   <v>       0.00300526 </v>
   <v>       0.00300526 </v>
   <v>       0.00601052 </v>
   <v>       0.00601052 </v>
   <v>       0.00601052 </v>
   <v>       0.00601052 </v>
   <v>       0.00601052 </v>
   <v>       0.00601052 </v>
   <v>       0.00300526 </v>
   <v>       0.00300526 </v>
   <v>       0.00601052 </v>
   <v>       0.00601052 </v>
   <v>       0.00601052 </v>
   <v>       0.00601052 </v>
   <v>       0.00300526 </v>
   <v>       0.00300526 </v>
   <v>       0.00601052 </v>
   <v>       0.00601052 </v>
   <v>       0.00300526 </v>
   <v>       0.00300526 </v>
   <v>       0.00300526 </v>
  </varray>
 </kpoints>
 <parameters>
  <separator name="general" >
   <i type="string" name="SYSTEM">unknown system</i>
   <i type="logical" name="LCOMPAT"> F  </i>
  </separator>
  <separator name="electronic" >
   <i type="string" name="PREC">accura</i>
   <i name="ENMAX">    520.00000000</i>
   <i name="ENAUG">    291.05200000</i>
   <i name="EDIFF">      0.00005000</i>
   <i type="int" name="IALGO">    38</i>
   <i type="int" name="IWAVPR">    10</i>
   <i type="int" name="NBANDS">    12</i>
   <i name="NELECT">     12.00000000</i>
   <i type="int" name="TURBO">     0</i>
   <i type="int" name="IRESTART">     0</i>
   <i type="int" name="NREBOOT">     0</i>
   <i type="int" name="NMIN">     0</i>
   <i name="EREF">      0.00000000</i>
   <separator name="electronic smearing" >
    <i type="int" name="ISMEAR">     1</i>
    <i name="SIGMA">      0.05000000</i>
    <i name="KSPACING">      0.50000000</i>
    <i type="logical" name="KGAMMA"> T  </i>
   </separator>
   <separator name="electronic projectors" >
    <i type="logical" name="LREAL"> F  </i>
    <v name="ROPT">      0.00000000</v>
    <i type="int" name="LMAXPAW">  -100</i>
    <i type="int" name="LMAXMIX">     2</i>
    <i type="logical" name="NLSPLINE"> F  </i>
   </separator>
   <separator name="electronic startup" >
    <i type="int" name="ISTART">     0</i>
    <i type="int" name="ICHARG">     2</i>
    <i type="int" name="INIWAV">     1</i>
   </separator>
   <separator name="electronic spin" >
    <i type="int" name="ISPIN">     1</i>
    <i type="logical" name="LNONCOLLINEAR"> F  </i>
    <v name="MAGMOM">      1.00000000      1.00000000      1.00000000      1.00000000</v>
    <i name="NUPDOWN">     -1.00000000</i>
    <i type="logical" name="LSORBIT"> F  </i>
    <v name="SAXIS">      0.00000000      0.00000000      1.00000000</v>
    <i type="logical" name="LSPIRAL"> F  </i>
    <v name="QSPIRAL">      0.00000000      0.00000000      0.00000000</v>
    <i type="logical" name="LZEROZ"> F  </i>
   </separator>
   <separator name="electronic exchange-correlation" >
    <i type="logical" name="LASPH"> T  </i>
    <i type="logical" name="LMETAGGA"> F  </i>
   </separator>
   <separator name="electronic convergence" >
    <i type="int" name="NELM">   100</i>
    <i type="int" name="NELMDL">    -5</i>
    <i type="int" name="NELMIN">     4</i>
    <i name="ENINI">    520.00000000</i>
    <separator name="electronic convergence detail" >
     <i type="logical" name="LDIAG"> T  </i>
     <i type="logical" name="LSUBROT"> F  </i>
     <i name="WEIMIN">      0.00000000</i>
     <i name="EBREAK">      0.00000104</i>
     <i name="DEPER">      0.30000000</i>
     <i type="int" name="NRMM">     4</i>
     <i name="TIME">      0.40000000</i>
    </separator>
   </separator>
   <separator name="electronic mixer" >
    <i name="AMIX">      0.40000000</i>
    <i name="BMIX">      1.00000000</i>
    <i name="AMIN">      0.10000000</i>
    <i name="AMIX_MAG">      1.60000000</i>
    <i name="BMIX_MAG">      1.00000000</i>
    <separator name="electronic mixer details" >
     <i type="int" name="IMIX">     4</i>
     <i type="logical" name="MIXFIRST"> F  </i>
     <i type="int" name="MAXMIX">   -45</i>
     <i name="WC">    100.00000000</i>
     <i type="int" name="INIMIX">     1</i>
     <i type="int" name="MIXPRE">     1</i>
     <i type="int" name="MREMOVE">     5</i>
    </separator>
   </separator>
   <separator name="electronic dipolcorrection" >
    <i type="logical" name="LDIPOL"> F  </i>
    <i type="logical" name="LMONO"> F  </i>
    <i type="int" name="IDIPOL">     0</i>
    <i name="EPSILON">      1.00000000</i>
    <v name="DIPOL">   -100.00000000   -100.00000000   -100.00000000</v>
    <i name="EFIELD">      0.00000000</i>
   </separator>
  </separator>
  <separator name="grids" >
   <i type="int" name="NGX">    30</i>
   <i type="int" name="NGY">    30</i>
   <i type="int" name="NGZ">    30</i>
   <i type="int" name="NGXF">    60</i>
   <i type="int" name="NGYF">    60</i>
   <i type="int" name="NGZF">    60</i>
   <i type="logical" name="ADDGRID"> T  </i>
  </separator>
  <separator name="ionic" >
   <i type="int" name="NSW">     0</i>
   <i type="int" name="IBRION">    -1</i>
   <i type="int" name="MDALGO">     0</i>
   <i type="int" name="ISIF">     2</i>
   <i name="PSTRESS">      0.00000000</i>
   <i name="EDIFFG">      0.00050000</i>
   <i type="int" name="NFREE">     0</i>
   <i name="POTIM">      0.50000000</i>
   <i name="SMASS">     -3.00000000</i>
   <i name="SCALEE">      1.00000000</i>
  </separator>
  <separator name="ionic md" >
   <i name="TEBEG">      0.00010000</i>
   <i name="TEEND">      0.00010000</i>
   <i type="int" name="NBLOCK">     1</i>
   <i type="int" name="KBLOCK">     1</i>
   <i type="int" name="NPACO">   256</i>
   <i name="APACO">     16.00000000</i>
  </separator>
  <separator name="symmetry" >
   <i type="int" name="ISYM">     2</i>
   <i name="SYMPREC">      0.00001000</i>
  </separator>
  <separator name="dos" >
   <i type="int" name="LORBIT">     0</i>
   <v name="RWIGS">     -1.00000000</v>
   <i type="int" name="NEDOS">   301</i>
   <i name="EMIN">     10.00000000</i>
   <i name="EMAX">    -10.00000000</i>
   <i name="EFERMI">      0.00000000</i>
  </separator>
  <separator name="writing" >
   <i type="int" name="NWRITE">     2</i>
   <i type="logical" name="LWAVE"> F  </i>
   <i type="logical" name="LDOWNSAMPLE"> F  </i>
   <i type="logical" name="LCHARG"> F  </i>
   <i type="logical" name="LPARD"> F  </i>
   <i type="logical" name="LVTOT"> F  </i>
   <i type="logical" name="LVHAR"> F  </i>
   <i type="logical" name="LELF"> F  </i>
   <i type="logical" name="LOPTICS"> F  </i>
   <v name="STM">      0.00000000      0.00000000      0.00000000      0.00000000      0.00000000      0.00000000      0.00000000</v>
  </separator>
  <separator name="performance" >
   <i type="int" name="NPAR">     4</i>
   <i type="int" name="NSIM">     4</i>
   <i type="int" name="NBLK">    -1</i>
   <i type="logical" name="LPLANE"> T  </i>
   <i type="logical" name="LSCALAPACK"> T  </i>
   <i type="logical" name="LSCAAWARE"> F  </i>
   <i type="logical" name="LSCALU"> F  </i>
   <i type="logical" name="LASYNC"> F  </i>
   <i type="logical" name="LORBITALREAL"> F  </i>
  </separator>
  <separator name="miscellaneous" >
   <i type="int" name="IDIOT">     3</i>
   <i type="int" name="ISPECIAL">     0</i>
   <i type="logical" name="LMUSIC"> F  </i>
   <v name="POMASS">     26.98100000</v>
   <v name="DARWINR">      0.00000000</v>
   <v name="DARWINV">      1.00000000</v>
   <i type="logical" name="LCORR"> T  </i>
  </separator>
  <i type="logical" name="GGA_COMPAT"> T  </i>
  <i type="logical" name="LBERRY"> F  </i>
  <i type="int" name="ICORELEVEL">     0</i>
  <i type="logical" name="LDAU"> F  </i>
  <i type="int" name="I_CONSTRAINED_M">     0</i>
  <separator name="electronic exchange-correlation" >
   <i type="string" name="GGA">--</i>
   <i type="int" name="VOSKOWN">     0</i>
   <i type="logical" name="LHFCALC"> F  </i>
   <i type="string" name="PRECFOCK"></i>
   <i type="logical" name="LSYMGRAD"> F  </i>
   <i type="logical" name="LHFONE"> F  </i>
   <i type="logical" name="LRHFCALC"> F  </i>
   <i type="logical" name="LTHOMAS"> F  </i>
   <i type="logical" name="LMODELHF"> F  </i>
   <i name="ENCUT4O">     -1.00000000</i>
   <i type="int" name="EXXOEP">     0</i>
   <i type="int" name="FOURORBIT">     0</i>
   <i name="AEXX">      0.00000000</i>
   <i name="HFALPHA">      0.00000000</i>
   <i name="MCALPHA">      0.00000000</i>
   <i name="ALDAX">      1.00000000</i>
   <i name="AGGAX">      1.00000000</i>
   <i name="ALDAC">      1.00000000</i>
   <i name="AGGAC">      1.00000000</i>
   <i type="int" name="NKREDX">     1</i>
   <i type="int" name="NKREDY">     1</i>
   <i type="int" name="NKREDZ">     1</i>
   <i type="logical" name="SHIFTRED"> F  </i>
   <i type="logical" name="ODDONLY"> F  </i>
   <i type="logical" name="EVENONLY"> F  </i>
   <i type="int" name="LMAXFOCK">     0</i>
   <i type="int" name="NMAXFOCKAE">     0</i>
   <i type="logical" name="LFOCKAEDFT"> F  </i>
   <i name="HFSCREEN">      0.00000000</i>
   <i name="HFSCREENC">      0.00000000</i>
   <i type="int" name="NBANDSGWLOW">     0</i>
  </separator>
  <separator name="vdW DFT" >
   <i type="logical" name="LUSE_VDW"> F  </i>
   <i name="Zab_VDW">     -0.84910000</i>
   <i name="PARAM1">      0.12340000</i>
   <i name="PARAM2">      1.00000000</i>
   <i name="PARAM3">      0.00000000</i>
  </separator>
  <separator name="model GW" >
   <i type="int" name="MODEL_GW">     0</i>
   <i name="MODEL_EPS0">      9.84396596</i>
   <i name="MODEL_ALPHA">      1.00000000</i>
  </separator>
  <separator name="linear response parameters" >
   <i type="logical" name="LEPSILON"> F  </i>
   <i type="logical" name="LRPA"> F  </i>
   <i type="logical" name="LNABLA"> F  </i>
   <i type="logical" name="LVEL"> F  </i>
   <i type="int" name="KINTER">     0</i>
   <i name="CSHIFT">      0.10000000</i>
   <i name="OMEGAMAX">     -1.00000000</i>
   <i name="DEG_THRESHOLD">      0.00200000</i>
   <i name="RTIME">     -0.10000000</i>
   <i name="WPLASMAI">      0.00000000</i>
   <v name="DFIELD">      0.00000000      0.00000000      0.00000000</v>
   <v name="WPLASMA">      0.00000000      0.00000000      0.00000000      0.00000000      0.00000000      0.00000000      0.00000000      0.00000000      0.00000000</v>
  </separator>
  <separator name="orbital magnetization" >
   <i type="logical" name="NUCIND"> F  </i>
   <v name="MAGPOS">      0.00000000      0.00000000      0.00000000</v>
   <i type="logical" name="LNICSALL"> T  </i>
   <i type="logical" name="ORBITALMAG"> F  </i>
   <i type="logical" name="LMAGBLOCH"> F  </i>
   <i type="logical" name="LCHIMAG"> F  </i>
   <i type="logical" name="LGAUGE"> T  </i>
   <i type="int" name="MAGATOM">     0</i>
   <v name="MAGDIPOL">      0.00000000      0.00000000      0.00000000</v>
   <v name="AVECCONST">      0.00000000      0.00000000      0.00000000</v>
  </separator>
  <separator name="response functions" >
   <i type="logical" name="LADDER"> F  </i>
   <i type="logical" name="LRPAFORCE"> F  </i>
   <i type="logical" name="LFXC"> F  </i>
   <i type="logical" name="LHARTREE"> T  </i>
   <i type="int" name="IBSE">     0</i>
   <v type="int" name="KPOINT">    -1     0     0     0</v>
   <i type="logical" name="LTCTE"> F  </i>
   <i type="logical" name="LTETE"> F  </i>
   <i type="logical" name="LTRIPLET"> F  </i>
   <i type="logical" name="LFXCEPS"> F  </i>
   <i type="logical" name="LFXHEG"> F  </i>
   <i type="int" name="NATURALO">     2</i>
   <i type="logical" name="L2ORDER"> F  </i>
   <i type="logical" name="LMP2LT"> F  </i>
   <i type="logical" name="LUSEW"> F  </i>
   <i name="ENCUTGW">     -2.00000000</i>
   <i name="ENCUTGWSOFT">     -2.00000000</i>
   <i name="ENCUTLF">     -1.00000000</i>
   <i type="int" name="LMAXMP2">    -1</i>
   <i name="SCISSOR">      0.00000000</i>
   <i type="int" name="NOMEGA">     0</i>
   <i type="int" name="NOMEGAR">     0</i>
   <i type="int" name="NBANDSGW">    -1</i>
   <i type="int" name="NBANDSO">    -1</i>
   <i type="int" name="NBANDSV">    -1</i>
   <i type="int" name="NELM">   100</i>
   <i type="int" name="NELMHF">     1</i>
   <i type="int" name="DIM">     3</i>
   <i type="int" name="ANTIRES">     0</i>
   <i name="OMEGAMAX">    -30.00000000</i>
   <i name="OMEGAMIN">    -30.00000000</i>
   <i name="OMEGATL">   -200.00000000</i>
   <i type="int" name="OMEGAGRID">   140</i>
   <i name="CSHIFT">     -0.10000000</i>
   <i type="logical" name="SELFENERGY"> F  </i>
   <i type="logical" name="LSPECTRAL"> F  </i>
   <i type="logical" name="LSPECTRALGW"> F  </i>
   <i type="logical" name="LSINGLES"> F  </i>
   <i type="logical" name="LFERMIGW"> F  </i>
   <i type="logical" name="ODDONLYGW"> F  </i>
   <i type="logical" name="EVENONLYGW"> F  </i>
   <i type="int" name="NKREDLFX">     1</i>
   <i type="int" name="NKREDLFY">     1</i>
   <i type="int" name="NKREDLFZ">     1</i>
   <i type="int" name="MAXMEM">  2800</i>
   <i type="int" name="TELESCOPE">     0</i>
   <i type="int" name="TAUPAR">     1</i>
   <i type="int" name="OMEGAPAR">    -1</i>
   <i name="LAMBDA">      1.00000000</i>
  </separator>
  <separator name="External order field" >
   <i name="OFIELD_KAPPA">      0.00000000</i>
   <v name="OFIELD_K">      0.00000000      0.00000000      0.00000000</v>
   <i name="OFIELD_Q6_NEAR">      0.00000000</i>
   <i name="OFIELD_Q6_FAR">      0.00000000</i>
   <i name="OFIELD_A">      0.00000000</i>
  </separator>
 </parameters>
 <atominfo>
  <atoms>       4 </atoms>
  <types>       1 </types>
  <array name="atoms" >
   <dimension dim="1">ion</dimension>
   <field type="string">element</field>
   <field type="int">atomtype</field>
   <set>
    <rc><c>Al</c><c>   1</c></rc>
    <rc><c>Al</c><c>   1</c></rc>
    <rc><c>Al</c><c>   1</c></rc>
    <rc><c>Al</c><c>   1</c></rc>
   </set>
  </array>
  <array name="atomtypes" >
   <dimension dim="1">type</dimension>
   <field type="int">atomspertype</field>
   <field type="string">element</field>
   <field>mass</field>
   <field>valence</field>
   <field type="string">pseudopotential</field>
   <set>
    <rc><c>   4</c><c>Al</c><c>     26.98100000</c><c>      3.00000000</c><c>  PAW_PBE Al 04Jan2001                  </c></rc>
   </set>
  </array>
 </atominfo>
 <structure name="initialpos" >
  <crystal>
   <varray name="basis" >
    <v>       4.04336400       0.00000000       0.00000000 </v>
    <v>       0.48520400       4.01414600       0.00000000 </v>
    <v>       0.00000000       0.00000000       4.04336400 </v>
   </varray>
   <i name="volume">     65.62643976 </i>
   <varray name="rec_basis" >
    <v>       0.24731882      -0.02989430       0.00000000 </v>
    <v>       0.00000000       0.24911899       0.00000000 </v>
    <v>       0.00000000       0.00000000       0.24731882 </v>
   </varray>
  </crystal>
  <varray name="positions" >
   <v>       0.00000000       0.00000000       0.00000000 </v>
   <v>       0.00000000       0.50000000       0.50000000 </v>
   <v>       0.50000000       0.00000000       0.50000000 </v>
   <v>       0.50000000       0.50000000       0.00000000 </v>
  </varray>
 </structure>
 <calculation>
  <scstep>
   <time name="dav">    0.78    0.82</time>
   <time name="total">    0.88    0.93</time>
   <energy>
    <i name="alphaZ">     -0.81889188 </i>
    <i name="ewald">   -294.17001667 </i>
    <i name="hartreedc">     -0.47150259 </i>
    <i name="XCdc">   -104.91149677 </i>
    <i name="pawpsdc">    264.80062850 </i>
    <i name="pawaedc">   -136.98248303 </i>
    <i name="eentropy">     -0.00000953 </i>
    <i name="bandstr">     65.93172048 </i>
    <i name="atom">    214.15382826 </i>
    <i name="e_fr_energy">      7.53177677 </i>
    <i name="e_wo_entrp">      7.53178630 </i>
    <i name="e_0_energy">      7.53177995 </i>
   </energy>
  </scstep>
  <scstep>
   <time name="dav">    0.91    0.91</time>
   <time name="total">    0.91    0.91</time>
   <energy>
    <i name="e_fr_energy">    -14.22667105 </i>
    <i name="e_wo_entrp">    -14.22653428 </i>
    <i name="e_0_energy">    -14.22662546 </i>
   </energy>
  </scstep>
  <scstep>
   <time name="dav">    0.94    0.94</time>
   <time name="total">    0.94    0.94</time>
   <energy>
    <i name="e_fr_energy">    -14.95095614 </i>
    <i name="e_wo_entrp">    -14.95126463 </i>
    <i name="e_0_energy">    -14.95105897 </i>
   </energy>
  </scstep>
  <scstep>
   <time name="dav">    0.85    0.85</time>
   <time name="total">    0.85    0.85</time>
   <energy>
    <i name="e_fr_energy">    -14.95650196 </i>
    <i name="e_wo_entrp">    -14.95680869 </i>
    <i name="e_0_energy">    -14.95660420 </i>
   </energy>
  </scstep>
  <scstep>
   <time name="dav">    0.91    0.91</time>
   <time name="total">    0.98    0.98</time>
   <energy>
    <i name="e_fr_energy">    -14.95655808 </i>
    <i name="e_wo_entrp">    -14.95686485 </i>
    <i name="e_0_energy">    -14.95666034 </i>
   </energy>
  </scstep>
  <scstep>
   <time name="dav">    0.84    0.84</time>
   <time name="total">    1.00    1.00</time>
   <energy>
    <i name="e_fr_energy">    -14.90483004 </i>
    <i name="e_wo_entrp">    -14.90513810 </i>
    <i name="e_0_energy">    -14.90493273 </i>
   </energy>
  </scstep>
  <scstep>
   <time name="dav">    0.82    0.82</time>
   <time name="total">    0.97    0.97</time>
   <energy>
    <i name="e_fr_energy">    -14.86718448 </i>
    <i name="e_wo_entrp">    -14.86745562 </i>
    <i name="e_0_energy">    -14.86727486 </i>
   </energy>
  </scstep>
  <scstep>
   <time name="dav">    0.90    0.90</time>
   <time name="total">    1.05    1.05</time>
   <energy>
    <i name="e_fr_energy">    -14.86708273 </i>
    <i name="e_wo_entrp">    -14.86735520 </i>
    <i name="e_0_energy">    -14.86717356 </i>
   </energy>
  </scstep>
  <scstep>
   <time name="dav">    0.61    0.61</time>
   <time name="total">    0.70    0.70</time>
   <energy>
    <i name="alphaZ">     -0.81889188 </i>
    <i name="ewald">   -294.17001667 </i>
    <i name="hartreedc">     -0.56210258 </i>
    <i name="XCdc">   -104.45432922 </i>
    <i name="pawpsdc">    580.69494748 </i>
    <i name="pawaedc">   -452.94399099 </i>
    <i name="eentropy">      0.00027165 </i>
    <i name="bandstr">     43.23320837 </i>
    <i name="atom">    214.15382826 </i>
    <i name="e_fr_energy">    -14.86707559 </i>
    <i name="e_wo_entrp">    -14.86734724 </i>
    <i name="e_0_energy">    -14.86716614 </i>
   </energy>
  </scstep>
  <structure>
   <crystal>
    <varray name="basis" >
     <v>       4.04336400       0.00000000       0.00000000 </v>
     <v>       0.48520400       4.01414600       0.00000000 </v>
     <v>       0.00000000       0.00000000       4.04336400 </v>
    </varray>
    <i name="volume">     65.62643976 </i>
    <varray name="rec_basis" >
     <v>       0.24731882      -0.02989430       0.00000000 </v>
     <v>       0.00000000       0.24911899       0.00000000 </v>
     <v>       0.00000000       0.00000000       0.24731882 </v>
    </varray>
   </crystal>
   <varray name="positions" >
    <v>       0.00000000       0.00000000       0.00000000 </v>
    <v>       0.00000000       0.50000000       0.50000000 </v>
    <v>       0.50000000       0.00000000       0.50000000 </v>
    <v>       0.50000000       0.50000000       0.00000000 </v>
   </varray>
  </structure>
  <varray name="forces" >
   <v>       0.00000000      -0.00000000       0.00000000 </v>
   <v>      -0.00000000      -0.00000000      -0.00000000 </v>
   <v>       0.00000000      -0.00000000       0.00000000 </v>
   <v>      -0.00000000       0.00000000       0.00000000 </v>
  </varray>
  <varray name="stress" >
   <v>      16.67361903     -46.98909972       0.00000000 </v>
   <v>     -46.98909972      28.03309336       0.00000000 </v>
   <v>       0.00000000       0.00000000       3.57996611 </v>
  </varray>
  <energy>
   <i name="e_fr_energy">    -14.86707559 </i>
   <i name="e_wo_entrp">    -14.86716614 </i>
   <i name="e_0_energy">      0.00027165 </i>
  </energy>
  <time name="totalsc">    9.23    9.30</time>
  <eigenvalues>
   <array>
    <dimension dim="1">band</dimension>
    <dimension dim="2">kpoint</dimension>
    <dimension dim="3">spin</dimension>
    <field>eigene</field>
    <field>occ</field>
    <set>
     <set comment="spin 1">
      <set comment="kpoint 1">
       <r>   -3.1226    1.0000 </r>
       <r>    5.0852    1.0000 </r>
       <r>    5.1526    1.0000 </r>
       <r>    5.1526    1.0000 </r>
       <r>    6.3710    1.0000 </r>
       <r>    6.5551    1.0000 </r>
       <r>    6.5551    1.0000 </r>
       <r>   11.6749    0.0000 </r>
       <r>   12.6319    0.0000 </r>
       <r>   13.3397    0.0000 </r>
       <r>   13.3397    0.0000 </r>
       <r>   13.7210    0.0000 </r>
      </set>
      <set comment="kpoint 2">
       <r>   -3.0467    1.0000 </r>
       <r>    4.1857    1.0000 </r>
       <r>    5.1546    1.0000 </r>
       <r>    5.1970    1.0000 </r>
       <r>    6.4432    1.0000 </r>
       <r>    6.6510    1.0000 </r>
       <r>    7.6501    1.0000 </r>
       <r>   10.8293    0.0000 </r>
       <r>   12.0586    0.0000 </r>
       <r>   13.2087    0.0000 </r>
       <r>   13.3416    0.0000 </r>
       <r>   13.3725    0.0000 </r>
      </set>
      <set comment="kpoint 3">
       <r>   -2.8194    1.0000 </r>
       <r>    2.8698    1.0000 </r>
       <r>    5.3358    1.0000 </r>
       <r>    5.3630    1.0000 </r>
       <r>    6.6578    1.0000 </r>
       <r>    6.9307    1.0000 </r>
       <r>    9.3481   -0.0000 </r>
       <r>    9.7275    0.0000 </r>
       <r>   10.7336    0.0000 </r>
       <r>   12.1997    0.0000 </r>
       <r>   13.2226    0.0000 </r>
       <r>   13.4086    0.0000 </r>
      </set>
      <set comment="kpoint 4">
       <r>   -2.4413    1.0000 </r>
       <r>    1.6437    1.0000 </r>
       <r>    5.5811    1.0000 </r>
       <r>    5.7104    1.0000 </r>
       <r>    7.0070    1.0000 </r>
       <r>    7.3717    1.0000 </r>
       <r>    8.7236   -0.0000 </r>
       <r>    9.5455    0.0000 </r>
       <r>   11.1461    0.0000 </r>
       <r>   11.2001    0.0000 </r>
       <r>   12.1377    0.0000 </r>
       <r>   13.5916    0.0000 </r>
      </set>
      <set comment="kpoint 5">
       <r>   -1.9137    1.0000 </r>
       <r>    0.5443    1.0000 </r>
       <r>    5.9444    1.0000 </r>
       <r>    6.1972    1.0000 </r>
       <r>    7.4371    1.0000 </r>
       <r>    7.8864    1.0002 </r>
       <r>    7.9237    1.0062 </r>
       <r>    8.4976   -0.0000 </r>
       <r>   10.2106    0.0000 </r>
       <r>   11.0297    0.0000 </r>
       <r>   13.1185    0.0000 </r>
       <r>   13.9039    0.0000 </r>
      </set>
      <set comment="kpoint 6">
       <r>   -1.2385    1.0000 </r>
       <r>   -0.4181    1.0000 </r>
       <r>    6.4325    1.0000 </r>
       <r>    6.8238    1.0000 </r>
       <r>    7.0425    1.0000 </r>
       <r>    7.5905    1.0000 </r>
       <r>    8.0739   -0.0159 </r>
       <r>    8.3494   -0.0000 </r>
       <r>    9.6609    0.0000 </r>
       <r>   10.0858    0.0000 </r>
       <r>   14.3486    0.0000 </r>
       <r>   14.6980    0.0000 </r>
      </set>
      <set comment="kpoint 7">
       <r>   -2.9892    1.0000 </r>
       <r>    4.4091    1.0000 </r>
       <r>    4.4091    1.0000 </r>
       <r>    5.2074    1.0000 </r>
       <r>    6.5019    1.0000 </r>
       <r>    7.5431    1.0000 </r>
       <r>    7.5431    1.0000 </r>
       <r>    9.6175    0.0000 </r>
       <r>   12.2961    0.0000 </r>
       <r>   12.2961    0.0000 </r>
       <r>   13.3687    0.0000 </r>
       <r>   13.3687    0.0000 </r>
      </set>
      <set comment="kpoint 8">
       <r>   -2.7802    1.0000 </r>
       <r>    3.0932    1.0000 </r>
       <r>    4.7667    1.0000 </r>
       <r>    5.3992    1.0000 </r>
       <r>    6.7039    1.0000 </r>
       <r>    7.5818    1.0000 </r>
       <r>    8.4773   -0.0000 </r>
       <r>    9.2192   -0.0000 </r>
       <r>   10.9549    0.0000 </r>
       <r>   12.3788    0.0000 </r>
       <r>   12.6746    0.0000 </r>
       <r>   13.6545    0.0000 </r>
      </set>
      <set comment="kpoint 9">
       <r>   -2.4204    1.0000 </r>
       <r>    1.8551    1.0000 </r>
       <r>    5.2527    1.0000 </r>
       <r>    5.7300    1.0000 </r>
       <r>    7.0378    1.0000 </r>
       <r>    7.4624    1.0000 </r>
       <r>    7.7681    1.0000 </r>
       <r>    9.7498    0.0000 </r>
       <r>   11.0701    0.0000 </r>
       <r>   11.3069    0.0000 </r>
       <r>   13.1943    0.0000 </r>
       <r>   13.7686    0.0000 </r>
      </set>
      <set comment="kpoint 10">
       <r>   -1.9109    1.0000 </r>
       <r>    0.7412    1.0000 </r>
       <r>    5.8573    1.0000 </r>
       <r>    6.2001    1.0000 </r>
       <r>    6.5454    1.0000 </r>
       <r>    7.5382    1.0000 </r>
       <r>    8.0984   -0.0311 </r>
       <r>    8.6848   -0.0000 </r>
       <r>   10.3108    0.0000 </r>
       <r>   12.6226    0.0000 </r>
       <r>   13.0308    0.0000 </r>
       <r>   13.8552    0.0000 </r>
      </set>
      <set comment="kpoint 11">
       <r>   -1.2536    1.0000 </r>
       <r>   -0.2370    1.0000 </r>
       <r>    5.7885    1.0000 </r>
       <r>    6.5590    1.0000 </r>
       <r>    6.8100    1.0000 </r>
       <r>    7.7606    1.0000 </r>
       <r>    8.1311   -0.0063 </r>
       <r>    8.5273   -0.0000 </r>
       <r>    9.4989    0.0000 </r>
       <r>   11.5883    0.0000 </r>
       <r>   13.5638    0.0000 </r>
       <r>   14.6693    0.0000 </r>
      </set>
      <set comment="kpoint 12">
       <r>   -1.0740    1.0000 </r>
       <r>   -0.4506    1.0000 </r>
       <r>    5.1683    1.0000 </r>
       <r>    6.9769    1.0000 </r>
       <r>    7.2680    1.0000 </r>
       <r>    7.5599    1.0000 </r>
       <r>    8.5708   -0.0000 </r>
       <r>    8.7759   -0.0000 </r>
       <r>    9.4573    0.0000 </r>
       <r>   10.7576    0.0000 </r>
       <r>   12.9678    0.0000 </r>
       <r>   13.9864    0.0000 </r>
      </set>
      <set comment="kpoint 13">
       <r>   -1.7662    1.0000 </r>
       <r>    0.4948    1.0000 </r>
       <r>    4.6886    1.0000 </r>
       <r>    6.3335    1.0000 </r>
       <r>    7.4521    1.0000 </r>
       <r>    8.4502   -0.0000 </r>
       <r>    8.7540   -0.0000 </r>
       <r>    9.1015   -0.0000 </r>
       <r>   10.1879    0.0000 </r>
       <r>   10.5019    0.0000 </r>
       <r>   12.5086    0.0000 </r>
       <r>   13.0665    0.0000 </r>
      </set>
      <set comment="kpoint 14">
       <r>   -2.3113    1.0000 </r>
       <r>    1.5780    1.0000 </r>
       <r>    4.3506    1.0000 </r>
       <r>    5.8299    1.0000 </r>
       <r>    7.0907    1.0000 </r>
       <r>    8.7435   -0.0000 </r>
       <r>    9.4812    0.0000 </r>
       <r>    9.6590    0.0000 </r>
       <r>   11.0947    0.0000 </r>
       <r>   11.1748    0.0000 </r>
       <r>   11.4165    0.0000 </r>
       <r>   12.1873    0.0000 </r>
      </set>
      <set comment="kpoint 15">
       <r>   -2.7072    1.0000 </r>
       <r>    2.7899    1.0000 </r>
       <r>    4.1546    1.0000 </r>
       <r>    5.4657    1.0000 </r>
       <r>    6.7497    1.0000 </r>
       <r>    8.2745   -0.0000 </r>
       <r>    9.6026    0.0000 </r>
       <r>   10.6525    0.0000 </r>
       <r>   10.7721    0.0000 </r>
       <r>   11.9535    0.0000 </r>
       <r>   12.0047    0.0000 </r>
       <r>   12.1705    0.0000 </r>
      </set>
      <set comment="kpoint 16">
       <r>   -2.9526    1.0000 </r>
       <r>    4.1001    1.0000 </r>
       <r>    4.1001    1.0000 </r>
       <r>    5.2407    1.0000 </r>
       <r>    6.5275    1.0000 </r>
       <r>    7.8977    1.0007 </r>
       <r>    7.8977    1.0007 </r>
       <r>   11.8224    0.0000 </r>
       <r>   11.9616    0.0000 </r>
       <r>   11.9616    0.0000 </r>
       <r>   12.1122    0.0000 </r>
       <r>   13.1796    0.0000 </r>
      </set>
      <set comment="kpoint 17">
       <r>   -2.5897    1.0000 </r>
       <r>    3.4585    1.0000 </r>
       <r>    3.4585    1.0000 </r>
       <r>    5.5743    1.0000 </r>
       <r>    6.8864    1.0000 </r>
       <r>    7.3151    1.0000 </r>
       <r>    9.2254   -0.0000 </r>
       <r>    9.2254   -0.0000 </r>
       <r>   11.3167    0.0000 </r>
       <r>   11.3167    0.0000 </r>
       <r>   12.6967    0.0000 </r>
       <r>   12.6967    0.0000 </r>
      </set>
      <set comment="kpoint 18">
       <r>   -2.2485    1.0000 </r>
       <r>    2.2112    1.0000 </r>
       <r>    3.9631    1.0000 </r>
       <r>    5.8886    1.0000 </r>
       <r>    6.2520    1.0000 </r>
       <r>    7.2319    1.0000 </r>
       <r>    9.3692   -0.0000 </r>
       <r>   10.0942    0.0000 </r>
       <r>   11.0623    0.0000 </r>
       <r>   11.6209    0.0000 </r>
       <r>   11.8190    0.0000 </r>
       <r>   13.1484    0.0000 </r>
      </set>
      <set comment="kpoint 19">
       <r>   -1.7578    1.0000 </r>
       <r>    1.0844    1.0000 </r>
       <r>    4.6025    1.0000 </r>
       <r>    5.3360    1.0000 </r>
       <r>    6.3422    1.0000 </r>
       <r>    7.7004    1.0000 </r>
       <r>    9.0119   -0.0000 </r>
       <r>    9.6449    0.0000 </r>
       <r>   10.6051    0.0000 </r>
       <r>   12.4618    0.0000 </r>
       <r>   13.0192    0.0000 </r>
       <r>   13.0912    0.0000 </r>
      </set>
      <set comment="kpoint 20">
       <r>   -1.1190    1.0000 </r>
       <r>    0.0918    1.0000 </r>
       <r>    4.5557    1.0000 </r>
       <r>    5.3673    1.0000 </r>
       <r>    6.9354    1.0000 </r>
       <r>    8.0704   -0.0034 </r>
       <r>    8.3010   -0.0000 </r>
       <r>    9.6377    0.0000 </r>
       <r>   10.1203    0.0000 </r>
       <r>   12.3391    0.0000 </r>
       <r>   13.2447    0.0000 </r>
       <r>   13.3560    0.0000 </r>
      </set>
      <set comment="kpoint 21">
       <r>   -0.7606    1.0000 </r>
       <r>   -0.3344    1.0000 </r>
       <r>    3.9155    1.0000 </r>
       <r>    6.2305    1.0000 </r>
       <r>    7.2696    1.0000 </r>
       <r>    7.6687    1.0000 </r>
       <r>    8.9073   -0.0000 </r>
       <r>    9.0121   -0.0000 </r>
       <r>   10.6452    0.0000 </r>
       <r>   11.7242    0.0000 </r>
       <r>   12.4342    0.0000 </r>
       <r>   13.0066    0.0000 </r>
      </set>
      <set comment="kpoint 22">
       <r>   -1.4690    1.0000 </r>
       <r>    0.5929    1.0000 </r>
       <r>    3.4178    1.0000 </r>
       <r>    6.6091    1.0000 </r>
       <r>    7.0483    1.0000 </r>
       <r>    8.4617   -0.0000 </r>
       <r>    8.5424   -0.0000 </r>
       <r>    9.7619    0.0000 </r>
       <r>   11.2476    0.0000 </r>
       <r>   11.3020    0.0000 </r>
       <r>   11.7265    0.0000 </r>
       <r>   12.4086    0.0000 </r>
      </set>
      <set comment="kpoint 23">
       <r>   -2.0308    1.0000 </r>
       <r>    1.6587    1.0000 </r>
       <r>    3.0639    1.0000 </r>
       <r>    6.0885    1.0000 </r>
       <r>    7.2205    1.0000 </r>
       <r>    8.9196   -0.0000 </r>
       <r>    9.5566    0.0000 </r>
       <r>   10.1842    0.0000 </r>
       <r>   10.9098    0.0000 </r>
       <r>   11.5186    0.0000 </r>
       <r>   11.5901    0.0000 </r>
       <r>   11.9917    0.0000 </r>
      </set>
      <set comment="kpoint 24">
       <r>   -2.4440    1.0000 </r>
       <r>    2.8545    1.0000 </r>
       <r>    2.8545    1.0000 </r>
       <r>    5.7075    1.0000 </r>
       <r>    6.9635    1.0000 </r>
       <r>    9.9469    0.0000 </r>
       <r>    9.9469    0.0000 </r>
       <r>   10.0352    0.0000 </r>
       <r>   10.7113    0.0000 </r>
       <r>   10.7113    0.0000 </r>
       <r>   12.2652    0.0000 </r>
       <r>   12.3273    0.0000 </r>
      </set>
      <set comment="kpoint 25">
       <r>   -1.9263    1.0000 </r>
       <r>    2.7100    1.0000 </r>
       <r>    2.7100    1.0000 </r>
       <r>    5.1813    1.0000 </r>
       <r>    6.1864    1.0000 </r>
       <r>    7.5470    1.0000 </r>
       <r>   10.5790    0.0000 </r>
       <r>   10.5790    0.0000 </r>
       <r>   11.1846    0.0000 </r>
       <r>   11.1846    0.0000 </r>
       <r>   12.0760    0.0000 </r>
       <r>   12.0760    0.0000 </r>
      </set>
      <set comment="kpoint 26">
       <r>   -1.4546    1.0000 </r>
       <r>    1.5725    1.0000 </r>
       <r>    3.3488    1.0000 </r>
       <r>    4.2409    1.0000 </r>
       <r>    6.6235    1.0000 </r>
       <r>    8.0037    0.8567 </r>
       <r>    9.4792    0.0000 </r>
       <r>   11.0330    0.0000 </r>
       <r>   11.2041    0.0000 </r>
       <r>   11.4488    0.0000 </r>
       <r>   12.0244    0.0000 </r>
       <r>   12.6640    0.0000 </r>
      </set>
      <set comment="kpoint 27">
       <r>   -0.8351    1.0000 </r>
       <r>    0.5670    1.0000 </r>
       <r>    3.4382    1.0000 </r>
       <r>    4.1225    1.0000 </r>
       <r>    7.2003    1.0000 </r>
       <r>    8.5202   -0.0000 </r>
       <r>    8.5957   -0.0000 </r>
       <r>   10.1032    0.0000 </r>
       <r>   11.2530    0.0000 </r>
       <r>   11.8274    0.0000 </r>
       <r>   11.9696    0.0000 </r>
       <r>   12.6599    0.0000 </r>
      </set>
      <set comment="kpoint 28">
       <r>   -0.2996    1.0000 </r>
       <r>   -0.0697    1.0000 </r>
       <r>    2.7767    1.0000 </r>
       <r>    5.0209    1.0000 </r>
       <r>    7.7020    1.0000 </r>
       <r>    7.9171    1.0038 </r>
       <r>    9.3007   -0.0000 </r>
       <r>    9.3126   -0.0000 </r>
       <r>   10.6202    0.0000 </r>
       <r>   12.0128    0.0000 </r>
       <r>   12.3196    0.0000 </r>
       <r>   12.8750    0.0000 </r>
      </set>
      <set comment="kpoint 29">
       <r>   -1.0232    1.0000 </r>
       <r>    0.8386    1.0000 </r>
       <r>    2.2587    1.0000 </r>
       <r>    6.0138    1.0000 </r>
       <r>    7.0242    1.0000 </r>
       <r>    8.6664   -0.0000 </r>
       <r>    8.7741   -0.0000 </r>
       <r>   10.1263    0.0000 </r>
       <r>   10.1322    0.0000 </r>
       <r>   11.4730    0.0000 </r>
       <r>   12.8534    0.0000 </r>
       <r>   13.5264    0.0000 </r>
      </set>
      <set comment="kpoint 30">
       <r>   -1.6010    1.0000 </r>
       <r>    1.8857    1.0000 </r>
       <r>    1.8857    1.0000 </r>
       <r>    6.4865    1.0000 </r>
       <r>    6.9448    1.0000 </r>
       <r>    8.3536   -0.0000 </r>
       <r>    9.7717    0.0000 </r>
       <r>    9.7717    0.0000 </r>
       <r>   10.9817    0.0000 </r>
       <r>   10.9817    0.0000 </r>
       <r>   12.9365    0.0000 </r>
       <r>   12.9368    0.0000 </r>
      </set>
      <set comment="kpoint 31">
       <r>   -1.0025    1.0000 </r>
       <r>    2.2033    1.0000 </r>
       <r>    2.2033    1.0000 </r>
       <r>    3.2777    1.0000 </r>
       <r>    7.0442    1.0000 </r>
       <r>    8.4459   -0.0000 </r>
       <r>   10.0867    0.0000 </r>
       <r>   10.0867    0.0000 </r>
       <r>   11.0959    0.0000 </r>
       <r>   11.6290    0.0000 </r>
       <r>   11.6290    0.0000 </r>
       <r>   12.5312    0.0000 </r>
      </set>
      <set comment="kpoint 32">
       <r>   -0.4026    1.0000 </r>
       <r>    1.1868    1.0000 </r>
       <r>    2.4529    1.0000 </r>
       <r>    2.9734    1.0000 </r>
       <r>    7.6046    1.0000 </r>
       <r>    9.0238   -0.0000 </r>
       <r>    9.1102   -0.0000 </r>
       <r>   10.3064    0.0000 </r>
       <r>   10.6838    0.0000 </r>
       <r>   10.8347    0.0000 </r>
       <r>   11.7514    0.0000 </r>
       <r>   12.3484    0.0000 </r>
      </set>
      <set comment="kpoint 33">
       <r>    0.3074    1.0000 </r>
       <r>    0.3429    1.0000 </r>
       <r>    1.7700    1.0000 </r>
       <r>    3.8769    1.0000 </r>
       <r>    8.2744   -0.0000 </r>
       <r>    8.3049   -0.0000 </r>
       <r>    9.6561    0.0000 </r>
       <r>    9.7311    0.0000 </r>
       <r>    9.8595    0.0000 </r>
       <r>   11.0923    0.0000 </r>
       <r>   11.7231    0.0000 </r>
       <r>   13.1884    0.0000 </r>
      </set>
      <set comment="kpoint 34">
       <r>   -0.4303    1.0000 </r>
       <r>    1.2313    1.0000 </r>
       <r>    1.2313    1.0000 </r>
       <r>    4.9020    1.0000 </r>
       <r>    7.5792    1.0000 </r>
       <r>    9.1454   -0.0000 </r>
       <r>    9.1454   -0.0000 </r>
       <r>    9.1763   -0.0000 </r>
       <r>   10.5560    0.0000 </r>
       <r>   10.5560    0.0000 </r>
       <r>   12.7516    0.0000 </r>
       <r>   14.0421    0.0000 </r>
      </set>
      <set comment="kpoint 35">
       <r>    0.1771    1.0000 </r>
       <r>    1.6063    1.0000 </r>
       <r>    1.9484    1.0000 </r>
       <r>    1.9484    1.0000 </r>
       <r>    8.1485   -0.0016 </r>
       <r>    9.4994    0.0000 </r>
       <r>    9.5859    0.0000 </r>
       <r>    9.8405    0.0000 </r>
       <r>    9.8405    0.0000 </r>
       <r>   10.9535    0.0000 </r>
       <r>   11.3990    0.0000 </r>
       <r>   11.3990    0.0000 </r>
      </set>
      <set comment="kpoint 36">
       <r>    0.9021    1.0000 </r>
       <r>    0.9021    1.0000 </r>
       <r>    1.0579    1.0000 </r>
       <r>    2.8475    1.0000 </r>
       <r>    8.8323   -0.0000 </r>
       <r>    8.8323   -0.0000 </r>
       <r>    8.9872   -0.0000 </r>
       <r>   10.2781    0.0000 </r>
       <r>   10.2781    0.0000 </r>
       <r>   10.5637    0.0000 </r>
       <r>   10.7115    0.0000 </r>
       <r>   12.2392    0.0000 </r>
      </set>
      <set comment="kpoint 37">
       <r>   -3.0478    1.0000 </r>
       <r>    4.1002    1.0000 </r>
       <r>    5.2198    1.0000 </r>
       <r>    5.2198    1.0000 </r>
       <r>    6.6273    1.0000 </r>
       <r>    6.6273    1.0000 </r>
       <r>    7.4842    1.0000 </r>
       <r>   11.7395    0.0000 </r>
       <r>   12.0720    0.0000 </r>
       <r>   12.0720    0.0000 </r>
       <r>   12.7066    0.0000 </r>
       <r>   13.2431    0.0000 </r>
      </set>
      <set comment="kpoint 38">
       <r>   -2.9720    1.0000 </r>
       <r>    4.1715    1.0000 </r>
       <r>    4.2555    1.0000 </r>
       <r>    5.2642    1.0000 </r>
       <r>    6.7221    1.0000 </r>
       <r>    7.5540    1.0000 </r>
       <r>    7.7185    1.0000 </r>
       <r>   10.8974    0.0000 </r>
       <r>   11.1264    0.0000 </r>
       <r>   12.1199    0.0000 </r>
       <r>   13.3310    0.0000 </r>
       <r>   13.4438    0.0000 </r>
      </set>
      <set comment="kpoint 39">
       <r>   -2.7448    1.0000 </r>
       <r>    2.9410    1.0000 </r>
       <r>    4.3851    1.0000 </r>
       <r>    5.4031    1.0000 </r>
       <r>    6.9969    1.0000 </r>
       <r>    7.7609    1.0000 </r>
       <r>    9.4095    0.0000 </r>
       <r>    9.7976    0.0000 </r>
       <r>    9.8693    0.0000 </r>
       <r>   12.2719    0.0000 </r>
       <r>   13.1490    0.0000 </r>
       <r>   13.2933    0.0000 </r>
      </set>
      <set comment="kpoint 40">
       <r>   -2.3669    1.0000 </r>
       <r>    1.7158    1.0000 </r>
       <r>    4.7402    1.0000 </r>
       <r>    5.6481    1.0000 </r>
       <r>    7.4096    1.0000 </r>
       <r>    8.0896   -0.0354 </r>
       <r>    8.7362   -0.0000 </r>
       <r>    8.8024   -0.0000 </r>
       <r>   11.2277    0.0000 </r>
       <r>   12.1050    0.0000 </r>
       <r>   12.2131    0.0000 </r>
       <r>   12.5683    0.0000 </r>
      </set>
      <set comment="kpoint 41">
       <r>   -1.8396    1.0000 </r>
       <r>    0.6171    1.0000 </r>
       <r>    5.2350    1.0000 </r>
       <r>    6.0090    1.0000 </r>
       <r>    7.4536    1.0000 </r>
       <r>    7.8745    1.0001 </r>
       <r>    8.2426   -0.0000 </r>
       <r>    8.5868   -0.0000 </r>
       <r>   11.1213    0.0000 </r>
       <r>   11.1344    0.0000 </r>
       <r>   12.6473    0.0000 </r>
       <r>   13.4971    0.0000 </r>
      </set>
      <set comment="kpoint 42">
       <r>   -1.1648    1.0000 </r>
       <r>   -0.3448    1.0000 </r>
       <r>    5.8639    1.0000 </r>
       <r>    6.4451    1.0000 </r>
       <r>    6.6982    1.0000 </r>
       <r>    7.1376    1.0000 </r>
       <r>    8.7974   -0.0000 </r>
       <r>    9.0116   -0.0000 </r>
       <r>   10.2801    0.0000 </r>
       <r>   10.3588    0.0000 </r>
       <r>   13.2499    0.0000 </r>
       <r>   13.8759    0.0000 </r>
      </set>
      <set comment="kpoint 43">
       <r>   -2.9145    1.0000 </r>
       <r>    4.2261    1.0000 </r>
       <r>    4.4783    1.0000 </r>
       <r>    4.4783    1.0000 </r>
       <r>    7.6111    1.0000 </r>
       <r>    7.6132    1.0000 </r>
       <r>    7.6132    1.0000 </r>
       <r>    9.6869    0.0000 </r>
       <r>   11.3413    0.0000 </r>
       <r>   11.3413    0.0000 </r>
       <r>   13.9004    0.0000 </r>
       <r>   13.9004    0.0000 </r>
      </set>
      <set comment="kpoint 44">
       <r>   -2.7056    1.0000 </r>
       <r>    3.1641    1.0000 </r>
       <r>    4.4231    1.0000 </r>
       <r>    4.8347    1.0000 </r>
       <r>    7.6520    1.0000 </r>
       <r>    7.8053    1.0000 </r>
       <r>    8.5492   -0.0000 </r>
       <r>    9.2862   -0.0000 </r>
       <r>   10.0734    0.0000 </r>
       <r>   11.6954    0.0000 </r>
       <r>   13.3299    0.0000 </r>
       <r>   14.0318    0.0000 </r>
      </set>
      <set comment="kpoint 45">
       <r>   -2.3460    1.0000 </r>
       <r>    1.9270    1.0000 </r>
       <r>    4.7620    1.0000 </r>
       <r>    5.3175    1.0000 </r>
       <r>    7.5127    1.0000 </r>
       <r>    7.8340    1.0000 </r>
       <r>    8.1513   -0.0013 </r>
       <r>    8.8968   -0.0000 </r>
       <r>   11.1289    0.0000 </r>
       <r>   12.1892    0.0000 </r>
       <r>   12.2813    0.0000 </r>
       <r>   13.8385    0.0000 </r>
      </set>
      <set comment="kpoint 46">
       <r>   -1.8368    1.0000 </r>
       <r>    0.8138    1.0000 </r>
       <r>    5.2412    1.0000 </r>
       <r>    5.9097    1.0000 </r>
       <r>    6.6218    1.0000 </r>
       <r>    7.7990    1.0000 </r>
       <r>    8.2245   -0.0000 </r>
       <r>    8.6121   -0.0000 </r>
       <r>   11.2804    0.0000 </r>
       <r>   12.6982    0.0000 </r>
       <r>   12.7537    0.0000 </r>
       <r>   13.1413    0.0000 </r>
      </set>
      <set comment="kpoint 47">
       <r>   -1.1799    1.0000 </r>
       <r>   -0.1638    1.0000 </r>
       <r>    5.8078    1.0000 </r>
       <r>    5.9151    1.0000 </r>
       <r>    6.4579    1.0000 </r>
       <r>    7.0705    1.0000 </r>
       <r>    8.6753   -0.0000 </r>
       <r>    9.1803   -0.0000 </r>
       <r>   10.4079    0.0000 </r>
       <r>   11.6817    0.0000 </r>
       <r>   12.6238    0.0000 </r>
       <r>   13.5260    0.0000 </r>
      </set>
      <set comment="kpoint 48">
       <r>   -1.0003    1.0000 </r>
       <r>   -0.3773    1.0000 </r>
       <r>    5.2375    1.0000 </r>
       <r>    5.9941    1.0000 </r>
       <r>    6.6194    1.0000 </r>
       <r>    7.5509    1.0000 </r>
       <r>    9.1660   -0.0000 </r>
       <r>    9.7020    0.0000 </r>
       <r>    9.8290    0.0000 </r>
       <r>   10.9690    0.0000 </r>
       <r>   12.0136    0.0000 </r>
       <r>   14.3881    0.0000 </r>
      </set>
      <set comment="kpoint 49">
       <r>   -1.6922    1.0000 </r>
       <r>    0.5676    1.0000 </r>
       <r>    4.7587    1.0000 </r>
       <r>    5.3664    1.0000 </r>
       <r>    7.4952    1.0000 </r>
       <r>    8.2377   -0.0000 </r>
       <r>    9.1033   -0.0000 </r>
       <r>    9.5420    0.0000 </r>
       <r>   10.2872    0.0000 </r>
       <r>   11.2099    0.0000 </r>
       <r>   11.5222    0.0000 </r>
       <r>   13.5668    0.0000 </r>
      </set>
      <set comment="kpoint 50">
       <r>   -2.2370    1.0000 </r>
       <r>    1.6502    1.0000 </r>
       <r>    4.4209    1.0000 </r>
       <r>    4.8593    1.0000 </r>
       <r>    8.1534   -0.0011 </r>
       <r>    8.3706   -0.0000 </r>
       <r>    9.1292   -0.0000 </r>
       <r>    9.7564    0.0000 </r>
       <r>   11.0307    0.0000 </r>
       <r>   11.1715    0.0000 </r>
       <r>   11.8186    0.0000 </r>
       <r>   12.0852    0.0000 </r>
      </set>
      <set comment="kpoint 51">
       <r>   -2.6326    1.0000 </r>
       <r>    2.8613    1.0000 </r>
       <r>    4.2249    1.0000 </r>
       <r>    4.4890    1.0000 </r>
       <r>    7.8461    1.0000 </r>
       <r>    8.3108   -0.0000 </r>
       <r>    9.6359    0.0000 </r>
       <r>    9.8364    0.0000 </r>
       <r>   10.8468    0.0000 </r>
       <r>   11.1560    0.0000 </r>
       <r>   12.0241    0.0000 </r>
       <r>   13.1058    0.0000 </r>
      </set>
      <set comment="kpoint 52">
       <r>   -2.8779    1.0000 </r>
       <r>    4.1702    1.0000 </r>
       <r>    4.1702    1.0000 </r>
       <r>    4.2593    1.0000 </r>
       <r>    7.6347    1.0000 </r>
       <r>    7.9608    1.0339 </r>
       <r>    7.9608    1.0339 </r>
       <r>   11.0559    0.0000 </r>
       <r>   11.0559    0.0000 </r>
       <r>   11.8870    0.0000 </r>
       <r>   12.1871    0.0000 </r>
       <r>   13.9179    0.0000 </r>
      </set>
      <set comment="kpoint 53">
       <r>   -2.5152    1.0000 </r>
       <r>    3.5288    1.0000 </r>
       <r>    3.5288    1.0000 </r>
       <r>    4.6033    1.0000 </r>
       <r>    7.3720    1.0000 </r>
       <r>    7.9987    0.9094 </r>
       <r>    9.2938   -0.0000 </r>
       <r>    9.2938   -0.0000 </r>
       <r>   10.4243    0.0000 </r>
       <r>   10.4243    0.0000 </r>
       <r>   13.6422    0.0000 </r>
       <r>   13.6422    0.0000 </r>
      </set>
      <set comment="kpoint 54">
       <r>   -2.1743    1.0000 </r>
       <r>    2.2827    1.0000 </r>
       <r>    4.0322    1.0000 </r>
       <r>    4.9251    1.0000 </r>
       <r>    6.3265    1.0000 </r>
       <r>    8.3188   -0.0000 </r>
       <r>    9.2135   -0.0000 </r>
       <r>    9.4498    0.0000 </r>
       <r>   10.9168    0.0000 </r>
       <r>   11.1283    0.0000 </r>
       <r>   12.6005    0.0000 </r>
       <r>   13.0743    0.0000 </r>
      </set>
      <set comment="kpoint 55">
       <r>   -1.6838    1.0000 </r>
       <r>    1.1568    1.0000 </r>
       <r>    4.6682    1.0000 </r>
       <r>    5.3530    1.0000 </r>
       <r>    5.4450    1.0000 </r>
       <r>    8.1467   -0.0019 </r>
       <r>    8.7770   -0.0000 </r>
       <r>    9.7252    0.0000 </r>
       <r>   11.5483    0.0000 </r>
       <r>   11.5851    0.0000 </r>
       <r>   12.1877    0.0000 </r>
       <r>   13.0871    0.0000 </r>
      </set>
      <set comment="kpoint 56">
       <r>   -1.0453    1.0000 </r>
       <r>    0.1648    1.0000 </r>
       <r>    4.6257    1.0000 </r>
       <r>    5.4179    1.0000 </r>
       <r>    5.9957    1.0000 </r>
       <r>    7.2244    1.0000 </r>
       <r>    9.3622   -0.0000 </r>
       <r>   10.1286    0.0000 </r>
       <r>   10.6897    0.0000 </r>
       <r>   11.4320    0.0000 </r>
       <r>   12.3165    0.0000 </r>
       <r>   13.4309    0.0000 </r>
      </set>
      <set comment="kpoint 57">
       <r>   -0.6871    1.0000 </r>
       <r>   -0.2612    1.0000 </r>
       <r>    3.9863    1.0000 </r>
       <r>    6.0482    1.0000 </r>
       <r>    6.6785    1.0000 </r>
       <r>    6.7366    1.0000 </r>
       <r>    9.8708    0.0000 </r>
       <r>   10.0466    0.0000 </r>
       <r>   10.7214    0.0000 </r>
       <r>   10.8097    0.0000 </r>
       <r>   12.5267    0.0000 </r>
       <r>   13.2187    0.0000 </r>
      </set>
      <set comment="kpoint 58">
       <r>   -1.3952    1.0000 </r>
       <r>    0.6657    1.0000 </r>
       <r>    3.4890    1.0000 </r>
       <r>    5.6230    1.0000 </r>
       <r>    7.4037    1.0000 </r>
       <r>    7.6112    1.0000 </r>
       <r>    9.2893   -0.0000 </r>
       <r>   10.3199    0.0000 </r>
       <r>   10.6748    0.0000 </r>
       <r>   11.3714    0.0000 </r>
       <r>   11.9370    0.0000 </r>
       <r>   13.3270    0.0000 </r>
      </set>
      <set comment="kpoint 59">
       <r>   -1.9567    1.0000 </r>
       <r>    1.7309    1.0000 </r>
       <r>    3.1352    1.0000 </r>
       <r>    5.1164    1.0000 </r>
       <r>    8.1044   -0.0259 </r>
       <r>    8.6041   -0.0000 </r>
       <r>    9.2061   -0.0000 </r>
       <r>    9.9520    0.0000 </r>
       <r>   10.6283    0.0000 </r>
       <r>   11.9773    0.0000 </r>
       <r>   12.0586    0.0000 </r>
       <r>   12.2835    0.0000 </r>
      </set>
      <set comment="kpoint 60">
       <r>   -2.3696    1.0000 </r>
       <r>    2.9259    1.0000 </r>
       <r>    2.9259    1.0000 </r>
       <r>    4.7339    1.0000 </r>
       <r>    8.0335    0.4005 </r>
       <r>    9.5812    0.0000 </r>
       <r>    9.5812    0.0000 </r>
       <r>   10.1376    0.0000 </r>
       <r>   10.3495    0.0000 </r>
       <r>   10.3495    0.0000 </r>
       <r>   12.3299    0.0000 </r>
       <r>   13.2139    0.0000 </r>
      </set>
      <set comment="kpoint 61">
       <r>   -1.8522    1.0000 </r>
       <r>    2.7810    1.0000 </r>
       <r>    2.7810    1.0000 </r>
       <r>    5.1971    1.0000 </r>
       <r>    5.2880    1.0000 </r>
       <r>    8.6282   -0.0000 </r>
       <r>    9.7024    0.0000 </r>
       <r>    9.7024    0.0000 </r>
       <r>   11.2531    0.0000 </r>
       <r>   11.2531    0.0000 </r>
       <r>   12.0385    0.0000 </r>
       <r>   13.0565    0.0000 </r>
      </set>
      <set comment="kpoint 62">
       <r>   -1.3808    1.0000 </r>
       <r>    1.6445    1.0000 </r>
       <r>    3.4185    1.0000 </r>
       <r>    4.3112    1.0000 </r>
       <r>    5.6804    1.0000 </r>
       <r>    8.6090   -0.0000 </r>
       <r>    9.0747   -0.0000 </r>
       <r>   10.3235    0.0000 </r>
       <r>   11.1309    0.0000 </r>
       <r>   11.5064    0.0000 </r>
       <r>   12.0343    0.0000 </r>
       <r>   13.1933    0.0000 </r>
      </set>
      <set comment="kpoint 63">
       <r>   -0.7616    1.0000 </r>
       <r>    0.6397    1.0000 </r>
       <r>    3.5093    1.0000 </r>
       <r>    4.1889    1.0000 </r>
       <r>    6.2670    1.0000 </r>
       <r>    7.6525    1.0000 </r>
       <r>    9.6541    0.0000 </r>
       <r>   10.3564    0.0000 </r>
       <r>   11.0832    0.0000 </r>
       <r>   11.0984    0.0000 </r>
       <r>   11.8967    0.0000 </r>
       <r>   13.6703    0.0000 </r>
      </set>
      <set comment="kpoint 64">
       <r>   -0.2264    1.0000 </r>
       <r>    0.0034    1.0000 </r>
       <r>    2.8483    1.0000 </r>
       <r>    5.0720    1.0000 </r>
       <r>    6.8517    1.0000 </r>
       <r>    6.9929    1.0000 </r>
       <r>    9.7176    0.0000 </r>
       <r>   10.2971    0.0000 </r>
       <r>   10.3562    0.0000 </r>
       <r>   11.9790    0.0000 </r>
       <r>   12.3873    0.0000 </r>
       <r>   13.0270    0.0000 </r>
      </set>
      <set comment="kpoint 65">
       <r>   -0.9496    1.0000 </r>
       <r>    0.9113    1.0000 </r>
       <r>    2.3306    1.0000 </r>
       <r>    5.8160    1.0000 </r>
       <r>    6.4465    1.0000 </r>
       <r>    7.8550    1.0000 </r>
       <r>    9.2151   -0.0000 </r>
       <r>    9.6402    0.0000 </r>
       <r>   11.1520    0.0000 </r>
       <r>   12.4814    0.0000 </r>
       <r>   12.9199    0.0000 </r>
       <r>   13.0067    0.0000 </r>
      </set>
      <set comment="kpoint 66">
       <r>   -1.5270    1.0000 </r>
       <r>    1.9578    1.0000 </r>
       <r>    1.9578    1.0000 </r>
       <r>    5.4988    1.0000 </r>
       <r>    7.3090    1.0000 </r>
       <r>    8.8474   -0.0000 </r>
       <r>    8.8474   -0.0000 </r>
       <r>    9.1759   -0.0000 </r>
       <r>   11.8912    0.0000 </r>
       <r>   11.8912    0.0000 </r>
       <r>   13.0701    0.0000 </r>
       <r>   13.1354    0.0000 </r>
      </set>
      <set comment="kpoint 67">
       <r>   -0.9289    1.0000 </r>
       <r>    2.2747    1.0000 </r>
       <r>    2.2747    1.0000 </r>
       <r>    3.3490    1.0000 </r>
       <r>    6.1096    1.0000 </r>
       <r>    9.2147   -0.0000 </r>
       <r>    9.2147   -0.0000 </r>
       <r>    9.5078    0.0000 </r>
       <r>   10.2034    0.0000 </r>
       <r>   12.6182    0.0000 </r>
       <r>   12.6182    0.0000 </r>
       <r>   13.4223    0.0000 </r>
      </set>
      <set comment="kpoint 68">
       <r>   -0.3294    1.0000 </r>
       <r>    1.2590    1.0000 </r>
       <r>    2.5246    1.0000 </r>
       <r>    3.0435    1.0000 </r>
       <r>    6.6796    1.0000 </r>
       <r>    8.2388   -0.0000 </r>
       <r>    9.4102    0.0000 </r>
       <r>    9.9611    0.0000 </r>
       <r>   10.0749    0.0000 </r>
       <r>   11.6795    0.0000 </r>
       <r>   12.7678    0.0000 </r>
       <r>   13.3344    0.0000 </r>
      </set>
      <set comment="kpoint 69">
       <r>    0.3802    1.0000 </r>
       <r>    0.4158    1.0000 </r>
       <r>    1.8421    1.0000 </r>
       <r>    3.9438    1.0000 </r>
       <r>    7.3888    1.0000 </r>
       <r>    7.4039    1.0000 </r>
       <r>    8.7537   -0.0000 </r>
       <r>   10.7706    0.0000 </r>
       <r>   10.8452    0.0000 </r>
       <r>   10.8601    0.0000 </r>
       <r>   12.1151    0.0000 </r>
       <r>   14.1203    0.0000 </r>
      </set>
      <set comment="kpoint 70">
       <r>   -0.3570    1.0000 </r>
       <r>    1.3038    1.0000 </r>
       <r>    1.3038    1.0000 </r>
       <r>    4.9533    1.0000 </r>
       <r>    6.7268    1.0000 </r>
       <r>    8.2353   -0.0000 </r>
       <r>    8.2353   -0.0000 </r>
       <r>   10.1754    0.0000 </r>
       <r>   11.5831    0.0000 </r>
       <r>   11.5831    0.0000 </r>
       <r>   11.8631    0.0000 </r>
       <r>   14.1071    0.0000 </r>
      </set>
      <set comment="kpoint 71">
       <r>    0.2500    1.0000 </r>
       <r>    1.6785    1.0000 </r>
       <r>    2.0199    1.0000 </r>
       <r>    2.0199    1.0000 </r>
       <r>    7.2324    1.0000 </r>
       <r>    8.5986   -0.0000 </r>
       <r>    8.9693   -0.0000 </r>
       <r>    8.9693   -0.0000 </r>
       <r>   10.6277    0.0000 </r>
       <r>   11.9773    0.0000 </r>
       <r>   12.3908    0.0000 </r>
       <r>   12.3908    0.0000 </r>
      </set>
      <set comment="kpoint 72">
       <r>    0.9747    1.0000 </r>
       <r>    0.9747    1.0000 </r>
       <r>    1.1302    1.0000 </r>
       <r>    2.9177    1.0000 </r>
       <r>    7.9243    1.0065 </r>
       <r>    7.9243    1.0065 </r>
       <r>    8.1150   -0.0164 </r>
       <r>    9.8395    0.0000 </r>
       <r>   11.3101    0.0000 </r>
       <r>   11.3101    0.0000 </r>
       <r>   11.5610    0.0000 </r>
       <r>   13.2270    0.0000 </r>
      </set>
      <set comment="kpoint 73">
       <r>   -2.8237    1.0000 </r>
       <r>    2.7925    1.0000 </r>
       <r>    5.4208    1.0000 </r>
       <r>    5.4208    1.0000 </r>
       <r>    6.8425    1.0000 </r>
       <r>    6.8425    1.0000 </r>
       <r>    9.1753   -0.0000 </r>
       <r>   10.7728    0.0000 </r>
       <r>   10.7728    0.0000 </r>
       <r>   11.9333    0.0000 </r>
       <r>   12.2389    0.0000 </r>
       <r>   12.2389    0.0000 </r>
      </set>
      <set comment="kpoint 74">
       <r>   -2.7480    1.0000 </r>
       <r>    2.8649    1.0000 </r>
       <r>    4.4645    1.0000 </r>
       <r>    5.4653    1.0000 </r>
       <r>    6.9328    1.0000 </r>
       <r>    7.9207    1.0050 </r>
       <r>    9.2415   -0.0000 </r>
       <r>    9.8890    0.0000 </r>
       <r>   10.8287    0.0000 </r>
       <r>   11.1027    0.0000 </r>
       <r>   12.3284    0.0000 </r>
       <r>   13.2046    0.0000 </r>
      </set>
      <set comment="kpoint 75">
       <r>   -2.5212    1.0000 </r>
       <r>    3.0819    1.0000 </r>
       <r>    3.1544    1.0000 </r>
       <r>    5.6037    1.0000 </r>
       <r>    7.1785    1.0000 </r>
       <r>    8.6742   -0.0000 </r>
       <r>    9.4282    0.0000 </r>
       <r>    9.5742    0.0000 </r>
       <r>   10.0170    0.0000 </r>
       <r>   11.0214    0.0000 </r>
       <r>   12.5935    0.0000 </r>
       <r>   13.5072    0.0000 </r>
      </set>
      <set comment="kpoint 76">
       <r>   -2.1439    1.0000 </r>
       <r>    1.9318    1.0000 </r>
       <r>    3.4427    1.0000 </r>
       <r>    5.8443    1.0000 </r>
       <r>    7.1889    1.0000 </r>
       <r>    7.9511    1.0263 </r>
       <r>    8.9746   -0.0000 </r>
       <r>    9.7804    0.0000 </r>
       <r>   10.9600    0.0000 </r>
       <r>   11.7555    0.0000 </r>
       <r>   12.4469    0.0000 </r>
       <r>   13.0275    0.0000 </r>
      </set>
      <set comment="kpoint 77">
       <r>   -1.6176    1.0000 </r>
       <r>    0.8351    1.0000 </r>
       <r>    3.9457    1.0000 </r>
       <r>    6.1037    1.0000 </r>
       <r>    6.3992    1.0000 </r>
       <r>    8.0986   -0.0310 </r>
       <r>    8.4047   -0.0000 </r>
       <r>   10.1177    0.0000 </r>
       <r>   11.4562    0.0000 </r>
       <r>   11.4846    0.0000 </r>
       <r>   12.7131    0.0000 </r>
       <r>   13.3674    0.0000 </r>
      </set>
      <set comment="kpoint 78">
       <r>   -0.9438    1.0000 </r>
       <r>   -0.1252    1.0000 </r>
       <r>    4.5877    1.0000 </r>
       <r>    5.3602    1.0000 </r>
       <r>    6.7329    1.0000 </r>
       <r>    7.3476    1.0000 </r>
       <r>    9.1258   -0.0000 </r>
       <r>    9.8969    0.0000 </r>
       <r>   11.2608    0.0000 </r>
       <r>   11.8758    0.0000 </r>
       <r>   12.0002    0.0000 </r>
       <r>   12.6239    0.0000 </r>
      </set>
      <set comment="kpoint 79">
       <r>   -2.6906    1.0000 </r>
       <r>    2.9202    1.0000 </r>
       <r>    4.6851    1.0000 </r>
       <r>    4.6851    1.0000 </r>
       <r>    7.8222    1.0000 </r>
       <r>    7.8222    1.0000 </r>
       <r>    9.2960   -0.0000 </r>
       <r>    9.8988    0.0000 </r>
       <r>   10.0916    0.0000 </r>
       <r>   10.0916    0.0000 </r>
       <r>   13.1145    0.0000 </r>
       <r>   13.1145    0.0000 </r>
      </set>
      <set comment="kpoint 80">
       <r>   -2.4821    1.0000 </r>
       <r>    3.1201    1.0000 </r>
       <r>    3.3764    1.0000 </r>
       <r>    5.0366    1.0000 </r>
       <r>    7.8591    1.0000 </r>
       <r>    8.7473   -0.0000 </r>
       <r>    8.8455   -0.0000 </r>
       <r>    9.4838    0.0000 </r>
       <r>    9.5011    0.0000 </r>
       <r>   10.4394    0.0000 </r>
       <r>   13.1667    0.0000 </r>
       <r>   13.9909    0.0000 </r>
      </set>
      <set comment="kpoint 81">
[...]
       <r>    0.8049    1.0000 </r>
       <r>    1.6003    1.0000 </r>
       <r>    2.6427    1.0000 </r>
       <r>    3.4223    1.0000 </r>
       <r>    4.0609    1.0000 </r>
       <r>    4.8336    1.0000 </r>
       <r>    7.9198    1.0047 </r>
       <r>    8.6866   -0.0000 </r>
       <r>   14.5058    0.0000 </r>
       <r>   14.9984    0.0000 </r>
       <r>   15.2248    0.0000 </r>
       <r>   15.6840    0.0000 </r>
      </set>
      <set comment="kpoint 210">
       <r>    0.2354    1.0000 </r>
       <r>    1.0351    1.0000 </r>
       <r>    3.6712    1.0000 </r>
       <r>    3.6712    1.0000 </r>
       <r>    4.4698    1.0000 </r>
       <r>    4.4698    1.0000 </r>
       <r>    9.0833   -0.0000 </r>
       <r>    9.8493    0.0000 </r>
       <r>   14.3161    0.0000 </r>
       <r>   14.3161    0.0000 </r>
       <r>   14.6300    0.0000 </r>
       <r>   15.0192    0.0000 </r>
      </set>
      <set comment="kpoint 211">
       <r>    0.8265    1.0000 </r>
       <r>    1.6236    1.0000 </r>
       <r>    3.8934    1.0000 </r>
       <r>    3.8934    1.0000 </r>
       <r>    4.9326    1.0000 </r>
       <r>    4.9326    1.0000 </r>
       <r>    5.0623    1.0000 </r>
       <r>    5.8390    1.0000 </r>
       <r>   14.8648    0.0000 </r>
       <r>   14.8648    0.0000 </r>
       <r>   15.8974    0.0000 </r>
       <r>   15.8974    0.0000 </r>
      </set>
      <set comment="kpoint 212">
       <r>    1.4182    1.0000 </r>
       <r>    2.2112    1.0000 </r>
       <r>    2.9675    1.0000 </r>
       <r>    3.6961    1.0000 </r>
       <r>    4.2479    1.0000 </r>
       <r>    4.8935    1.0000 </r>
       <r>    5.0272    1.0000 </r>
       <r>    5.6145    1.0000 </r>
       <r>   15.3045    0.0000 </r>
       <r>   15.9359    0.0000 </r>
       <r>   17.0722    0.0000 </r>
       <r>   17.3889    0.0000 </r>
      </set>
      <set comment="kpoint 213">
       <r>    2.1126    1.0000 </r>
       <r>    2.1532    1.0000 </r>
       <r>    2.8910    1.0000 </r>
       <r>    2.9345    1.0000 </r>
       <r>    3.5814    1.0000 </r>
       <r>    4.3558    1.0000 </r>
       <r>    5.7372    1.0000 </r>
       <r>    6.5005    1.0000 </r>
       <r>   15.6879    0.0000 </r>
       <r>   16.3844    0.0000 </r>
       <r>   17.5009    0.0000 </r>
       <r>   17.9284    0.0000 </r>
      </set>
      <set comment="kpoint 214">
       <r>    1.3885    1.0000 </r>
       <r>    2.1783    1.0000 </r>
       <r>    3.0247    1.0000 </r>
       <r>    3.0247    1.0000 </r>
       <r>    3.8311    1.0000 </r>
       <r>    3.8311    1.0000 </r>
       <r>    6.7625    1.0000 </r>
       <r>    7.5302    1.0000 </r>
       <r>   15.6720    0.0000 </r>
       <r>   16.3911    0.0000 </r>
       <r>   16.8748    0.0000 </r>
       <r>   16.8748    0.0000 </r>
      </set>
      <set comment="kpoint 215">
       <r>    1.9894    1.0000 </r>
       <r>    2.7709    1.0000 </r>
       <r>    3.4210    1.0000 </r>
       <r>    3.6469    1.0000 </r>
       <r>    3.6469    1.0000 </r>
       <r>    4.1957    1.0000 </r>
       <r>    4.6755    1.0000 </r>
       <r>    4.6755    1.0000 </r>
       <r>   17.0820    0.0000 </r>
       <r>   17.0820    0.0000 </r>
       <r>   17.8631    0.0000 </r>
       <r>   17.9108    0.0000 </r>
      </set>
      <set comment="kpoint 216">
       <r>    2.6986    1.0000 </r>
       <r>    2.6986    1.0000 </r>
       <r>    2.8410    1.0000 </r>
       <r>    3.5100    1.0000 </r>
       <r>    3.5100    1.0000 </r>
       <r>    3.5719    1.0000 </r>
       <r>    4.7661    1.0000 </r>
       <r>    5.4893    1.0000 </r>
       <r>   17.0108    0.0000 </r>
       <r>   17.7253    0.0000 </r>
       <r>   18.2996    0.0000 </r>
       <r>   18.3681    0.0000 </r>
      </set>
     </set>
    </set>
   </array>
  </eigenvalues>
  <separator name="orbital magnetization" >
   <v name="MAGDIPOLOUT">      0.00000000      0.00000000      0.00000000</v>
  </separator>
  <dos>
   <i name="efermi">      8.02753839 </i>
   <total>
    <array>
     <dimension dim="1">gridpoints</dimension>
     <dimension dim="2">spin</dimension>
     <field>energy</field>
     <field>total</field>
     <field>integrated</field>
     <set>
      <set comment="spin 1">
       <r>    -4.1971     0.0000     0.0000 </r>
       <r>    -4.1183     0.0000     0.0000 </r>
       <r>    -4.0395     0.0000     0.0000 </r>
       <r>    -3.9607     0.0000     0.0000 </r>
       <r>    -3.8819     0.0000     0.0000 </r>
       <r>    -3.8031     0.0000     0.0000 </r>
       <r>    -3.7243     0.0000     0.0000 </r>
       <r>    -3.6455     0.0000     0.0000 </r>
       <r>    -3.5667    -0.0000    -0.0000 </r>
       <r>    -3.4879    -0.0000    -0.0000 </r>
       <r>    -3.4091    -0.0000    -0.0000 </r>
       <r>    -3.3303    -0.0000    -0.0000 </r>
       <r>    -3.2515    -0.0000    -0.0000 </r>
       <r>    -3.1727    -0.0006    -0.0000 </r>
       <r>    -3.0939     0.0155     0.0012 </r>
       <r>    -3.0151     0.1134     0.0101 </r>
       <r>    -2.9363     0.2308     0.0283 </r>
       <r>    -2.8575     0.1455     0.0398 </r>
       <r>    -2.7787     0.1757     0.0536 </r>
       <r>    -2.6999     0.4954     0.0926 </r>
       <r>    -2.6211     0.3253     0.1183 </r>
       <r>    -2.5423     0.1129     0.1272 </r>
       <r>    -2.4635     0.3467     0.1545 </r>
       <r>    -2.3847     0.4707     0.1916 </r>
       <r>    -2.3059     0.5837     0.2376 </r>
       <r>    -2.2271     0.3274     0.2634 </r>
       <r>    -2.1483     0.4102     0.2957 </r>
       <r>    -2.0695     0.5197     0.3366 </r>
       <r>    -1.9907     0.3420     0.3636 </r>
       <r>    -1.9119     0.4942     0.4025 </r>
       <r>    -1.8331     0.4937     0.4414 </r>
       <r>    -1.7543     0.6784     0.4949 </r>
       <r>    -1.6755     0.5566     0.5388 </r>
       <r>    -1.5967     0.8238     0.6037 </r>
       <r>    -1.5179     0.4216     0.6369 </r>
       <r>    -1.4391     0.4929     0.6757 </r>
       <r>    -1.3603     0.4942     0.7147 </r>
       <r>    -1.2815     0.2391     0.7335 </r>
       <r>    -1.2027     0.9723     0.8101 </r>
       <r>    -1.1239     0.8909     0.8803 </r>
       <r>    -1.0451     0.7673     0.9408 </r>
       <r>    -0.9663     0.5627     0.9851 </r>
       <r>    -0.8875     0.7313     1.0428 </r>
       <r>    -0.8087     0.5656     1.0873 </r>
       <r>    -0.7299     0.9895     1.1653 </r>
       <r>    -0.6511     0.4662     1.2020 </r>
       <r>    -0.5723     0.7063     1.2577 </r>
       <r>    -0.4935     0.4992     1.2970 </r>
       <r>    -0.4147     0.7881     1.3591 </r>
       <r>    -0.3359     1.0877     1.4448 </r>
       <r>    -0.2571     0.8279     1.5101 </r>
       <r>    -0.1783     0.5606     1.5542 </r>
       <r>    -0.0995     1.1207     1.6426 </r>
       <r>    -0.0207     1.1766     1.7353 </r>
       <r>     0.0581     0.5411     1.7779 </r>
       <r>     0.1369     0.7055     1.8335 </r>
       <r>     0.2157     0.7515     1.8927 </r>
       <r>     0.2945     0.8661     1.9610 </r>
       <r>     0.3733     0.9530     2.0361 </r>
       <r>     0.4521     1.0163     2.1162 </r>
       <r>     0.5309     0.1690     2.1295 </r>
       <r>     0.6097     1.1723     2.2219 </r>
       <r>     0.6885     0.8960     2.2925 </r>
       <r>     0.7673     1.2738     2.3928 </r>
       <r>     0.8461     1.3648     2.5004 </r>
       <r>     0.9249     1.2459     2.5986 </r>
       <r>     1.0037     0.6805     2.6522 </r>
       <r>     1.0825     0.5999     2.6995 </r>
       <r>     1.1613     0.9002     2.7704 </r>
       <r>     1.2401     1.2307     2.8674 </r>
       <r>     1.3188     0.6446     2.9182 </r>
       <r>     1.3976     1.0332     2.9996 </r>
       <r>     1.4764     0.7353     3.0575 </r>
       <r>     1.5552     1.2110     3.1529 </r>
       <r>     1.6340     0.9407     3.2271 </r>
       <r>     1.7128     1.4522     3.3415 </r>
       <r>     1.7916     1.0823     3.4268 </r>
       <r>     1.8704     1.1584     3.5181 </r>
       <r>     1.9492     1.4125     3.6294 </r>
       <r>     2.0280     0.7958     3.6921 </r>
       <r>     2.1068     0.5879     3.7384 </r>
       <r>     2.1856     0.9681     3.8147 </r>
       <r>     2.2644     1.6605     3.9455 </r>
       <r>     2.3432     1.6802     4.0779 </r>
       <r>     2.4220     1.0986     4.1645 </r>
       <r>     2.5008     0.8109     4.2284 </r>
       <r>     2.5796     1.2020     4.3231 </r>
       <r>     2.6584     0.3556     4.3511 </r>
       <r>     2.7372     0.9917     4.4293 </r>
       <r>     2.8160     1.3242     4.5336 </r>
       <r>     2.8948     1.5599     4.6566 </r>
       <r>     2.9736     1.3057     4.7594 </r>
       <r>     3.0524     0.9055     4.8308 </r>
       <r>     3.1312     1.8624     4.9776 </r>
       <r>     3.2100     1.5620     5.1006 </r>
       <r>     3.2888     0.4751     5.1381 </r>
       <r>     3.3676     1.2551     5.2370 </r>
       <r>     3.4464     1.8934     5.3862 </r>
       <r>     3.5252     1.5261     5.5064 </r>
       <r>     3.6040     1.2327     5.6036 </r>
       <r>     3.6828     1.2781     5.7043 </r>
       <r>     3.7616     0.9856     5.7819 </r>
       <r>     3.8404     0.6410     5.8324 </r>
       <r>     3.9192     0.8482     5.8993 </r>
       <r>     3.9980     1.5993     6.0253 </r>
       <r>     4.0768     1.3348     6.1305 </r>
       <r>     4.1556     1.3884     6.2399 </r>
       <r>     4.2344     2.1614     6.4102 </r>
       <r>     4.3132     1.1149     6.4981 </r>
       <r>     4.3920     1.6382     6.6271 </r>
       <r>     4.4708     1.3404     6.7328 </r>
       <r>     4.5496     0.9221     6.8054 </r>
       <r>     4.6284     2.0342     6.9657 </r>
       <r>     4.7072     1.1575     7.0569 </r>
       <r>     4.7860     1.4712     7.1729 </r>
       <r>     4.8648     1.2710     7.2730 </r>
       <r>     4.9436     1.1377     7.3627 </r>
       <r>     5.0224     1.1569     7.4538 </r>
       <r>     5.1012     1.5442     7.5755 </r>
       <r>     5.1800     1.2470     7.6738 </r>
       <r>     5.2588     1.8399     7.8188 </r>
       <r>     5.3376     1.6457     7.9484 </r>
       <r>     5.4164     2.2953     8.1293 </r>
       <r>     5.4952     1.8739     8.2770 </r>
       <r>     5.5740     0.8737     8.3458 </r>
       <r>     5.6528     0.8771     8.4149 </r>
       <r>     5.7316     1.1939     8.5090 </r>
       <r>     5.8104     1.6129     8.6361 </r>
       <r>     5.8892     1.7672     8.7753 </r>
       <r>     5.9680     1.6352     8.9042 </r>
       <r>     6.0468     1.6677     9.0356 </r>
       <r>     6.1256     0.8686     9.1041 </r>
       <r>     6.2044     1.2873     9.2055 </r>
       <r>     6.2832     1.4747     9.3217 </r>
       <r>     6.3620     1.2117     9.4172 </r>
       <r>     6.4408     1.1305     9.5063 </r>
       <r>     6.5196     1.7143     9.6414 </r>
       <r>     6.5984     1.3056     9.7442 </r>
       <r>     6.6772     1.8198     9.8876 </r>
       <r>     6.7560     1.8361    10.0323 </r>
       <r>     6.8348     1.2124    10.1278 </r>
       <r>     6.9136     1.5416    10.2493 </r>
       <r>     6.9924     1.4030    10.3599 </r>
       <r>     7.0712     1.5422    10.4814 </r>
       <r>     7.1500     1.2989    10.5838 </r>
       <r>     7.2288     1.3554    10.6906 </r>
       <r>     7.3076     1.3159    10.7943 </r>
       <r>     7.3864     1.6933    10.9277 </r>
       <r>     7.4652     1.3372    11.0331 </r>
       <r>     7.5440     1.5405    11.1545 </r>
       <r>     7.6228     1.8346    11.2990 </r>
       <r>     7.7016     2.2742    11.4782 </r>
       <r>     7.7804     1.3930    11.5880 </r>
       <r>     7.8592     1.6584    11.7187 </r>
       <r>     7.9380     1.7369    11.8555 </r>
       <r>     8.0168     1.6792    11.9879 </r>
       <r>     8.0956     1.3729    12.0960 </r>
       <r>     8.1744     2.3228    12.2791 </r>
       <r>     8.2532     1.6841    12.4118 </r>
       <r>     8.3320     1.1101    12.4993 </r>
       <r>     8.4108     0.8579    12.5669 </r>
       <r>     8.4896     2.0058    12.7249 </r>
       <r>     8.5684     1.2598    12.8242 </r>
       <r>     8.6472     1.7365    12.9610 </r>
       <r>     8.7260     1.7629    13.0999 </r>
       <r>     8.8048     2.5372    13.2999 </r>
       <r>     8.8836     0.8825    13.3694 </r>
       <r>     8.9624     1.5807    13.4940 </r>
       <r>     9.0412     1.2279    13.5907 </r>
       <r>     9.1200     1.7429    13.7281 </r>
       <r>     9.1988     2.2490    13.9053 </r>
       <r>     9.2776     2.0811    14.0693 </r>
       <r>     9.3564     1.5024    14.1877 </r>
       <r>     9.4352     0.6289    14.2372 </r>
       <r>     9.5140     1.7036    14.3715 </r>
       <r>     9.5928     2.5303    14.5709 </r>
       <r>     9.6716     1.9815    14.7270 </r>
       <r>     9.7504     1.7557    14.8653 </r>
       <r>     9.8292     2.0043    15.0233 </r>
       <r>     9.9080     2.3509    15.2085 </r>
       <r>     9.9868     1.8271    15.3525 </r>
       <r>    10.0656     1.2609    15.4519 </r>
       <r>    10.1444     1.5722    15.5757 </r>
       <r>    10.2232     1.4632    15.6910 </r>
       <r>    10.3020     2.1863    15.8633 </r>
       <r>    10.3808     2.7927    16.0834 </r>
       <r>    10.4596     1.6278    16.2116 </r>
       <r>    10.5383     0.4715    16.2488 </r>
       <r>    10.6171     0.8054    16.3123 </r>
       <r>    10.6959     1.8231    16.4559 </r>
       <r>    10.7747     1.9325    16.6082 </r>
       <r>    10.8535     2.2273    16.7837 </r>
       <r>    10.9323     2.0451    16.9449 </r>
       <r>    11.0111     1.5671    17.0683 </r>
       <r>    11.0899     2.1341    17.2365 </r>
       <r>    11.1687     2.6377    17.4444 </r>
       <r>    11.2475     2.0973    17.6096 </r>
       <r>    11.3263     2.4699    17.8042 </r>
       <r>    11.4051     1.4134    17.9156 </r>
       <r>    11.4839     1.8585    18.0621 </r>
       <r>    11.5627     2.4262    18.2533 </r>
       <r>    11.6415     1.1473    18.3437 </r>
       <r>    11.7203     1.2690    18.4437 </r>
       <r>    11.7991     1.7179    18.5790 </r>
       <r>    11.8779     2.3232    18.7621 </r>
       <r>    11.9567     2.0191    18.9212 </r>
       <r>    12.0355     2.9833    19.1563 </r>
       <r>    12.1143     2.1528    19.3259 </r>
       <r>    12.1931     1.8962    19.4753 </r>
       <r>    12.2719     2.1709    19.6464 </r>
       <r>    12.3507     1.9303    19.7985 </r>
       <r>    12.4295     1.6545    19.9289 </r>
       <r>    12.5083     2.0166    20.0878 </r>
       <r>    12.5871     1.5864    20.2128 </r>
       <r>    12.6659     2.0163    20.3717 </r>
       <r>    12.7447     2.1980    20.5449 </r>
       <r>    12.8235     0.9091    20.6165 </r>
       <r>    12.9023     1.5775    20.7408 </r>
       <r>    12.9811     2.1360    20.9091 </r>
       <r>    13.0599     2.4164    21.0996 </r>
       <r>    13.1387     2.6963    21.3120 </r>
       <r>    13.2175     2.2359    21.4882 </r>
       <r>    13.2963     1.6175    21.6157 </r>
       <r>    13.3751     2.1882    21.7881 </r>
       <r>    13.4539     1.4877    21.9053 </r>
       <r>    13.5327     0.9757    21.9822 </r>
       <r>    13.6115     1.0334    22.0636 </r>
       <r>    13.6903     1.8228    22.2073 </r>
       <r>    13.7691     1.5904    22.3326 </r>
       <r>    13.8479     0.9172    22.4049 </r>
       <r>    13.9267     1.4168    22.5165 </r>
       <r>    14.0055     1.4053    22.6273 </r>
       <r>    14.0843     0.9630    22.7031 </r>
       <r>    14.1631     0.9549    22.7784 </r>
       <r>    14.2419     0.5032    22.8180 </r>
       <r>    14.3207     1.0115    22.8977 </r>
       <r>    14.3995     0.8065    22.9613 </r>
       <r>    14.4783     0.2473    22.9808 </r>
       <r>    14.5571     0.7610    23.0407 </r>
       <r>    14.6359     0.5803    23.0865 </r>
       <r>    14.7147     0.7865    23.1484 </r>
       <r>    14.7935     0.4198    23.1815 </r>
       <r>    14.8723     0.6683    23.2342 </r>
       <r>    14.9511     0.4439    23.2692 </r>
       <r>    15.0299     1.0406    23.3512 </r>
       <r>    15.1087     0.5421    23.3939 </r>
       <r>    15.1875     0.1975    23.4094 </r>
       <r>    15.2663     0.5923    23.4561 </r>
       <r>    15.3451     0.2804    23.4782 </r>
       <r>    15.4239     0.1077    23.4867 </r>
       <r>    15.5027     0.5192    23.5276 </r>
       <r>    15.5815     0.4092    23.5599 </r>
       <r>    15.6603     0.4421    23.5947 </r>
       <r>    15.7391     0.5744    23.6400 </r>
       <r>    15.8179     0.1857    23.6546 </r>
       <r>    15.8967     0.2122    23.6713 </r>
       <r>    15.9755     0.3911    23.7021 </r>
       <r>    16.0543     0.2013    23.7180 </r>
       <r>    16.1331     0.0200    23.7196 </r>
       <r>    16.2119     0.3410    23.7464 </r>
       <r>    16.2907     0.2317    23.7647 </r>
       <r>    16.3695     0.0607    23.7695 </r>
       <r>    16.4483     0.3299    23.7955 </r>
       <r>    16.5271     0.2183    23.8127 </r>
       <r>    16.6059     0.3723    23.8420 </r>
       <r>    16.6847     0.0184    23.8435 </r>
       <r>    16.7635     0.0992    23.8513 </r>
       <r>    16.8423     0.2285    23.8693 </r>
       <r>    16.9211     0.2143    23.8862 </r>
       <r>    16.9999     0.0120    23.8871 </r>
       <r>    17.0787     0.2190    23.9044 </r>
       <r>    17.1575     0.2895    23.9272 </r>
       <r>    17.2363     0.0765    23.9332 </r>
       <r>    17.3151     0.0046    23.9336 </r>
       <r>    17.3939     0.0923    23.9408 </r>
       <r>    17.4727     0.0819    23.9473 </r>
       <r>    17.5515     0.1389    23.9582 </r>
       <r>    17.6303    -0.0047    23.9579 </r>
       <r>    17.7091     0.0191    23.9594 </r>
       <r>    17.7879     0.0584    23.9640 </r>
       <r>    17.8667     0.0362    23.9668 </r>
       <r>    17.9455     0.2318    23.9851 </r>
       <r>    18.0243     0.0385    23.9881 </r>
       <r>    18.1031    -0.0018    23.9880 </r>
       <r>    18.1819    -0.0002    23.9880 </r>
       <r>    18.2607     0.0010    23.9880 </r>
       <r>    18.3395     0.0817    23.9945 </r>
       <r>    18.4183     0.0721    24.0002 </r>
       <r>    18.4971    -0.0020    24.0000 </r>
       <r>    18.5759    -0.0001    24.0000 </r>
       <r>    18.6547    -0.0000    24.0000 </r>
       <r>    18.7335    -0.0000    24.0000 </r>
       <r>    18.8123     0.0000    24.0000 </r>
       <r>    18.8911     0.0000    24.0000 </r>
       <r>    18.9699     0.0000    24.0000 </r>
       <r>    19.0487     0.0000    24.0000 </r>
       <r>    19.1275     0.0000    24.0000 </r>
       <r>    19.2063     0.0000    24.0000 </r>
       <r>    19.2851     0.0000    24.0000 </r>
       <r>    19.3639     0.0000    24.0000 </r>
       <r>    19.4427     0.0000    24.0000 </r>
      </set>
     </set>
    </array>
   </total>
  </dos>
 </calculation>
 <structure name="finalpos" >
  <crystal>
   <varray name="basis" >
    <v>       4.04336400       0.00000000       0.00000000 </v>
    <v>       0.48520400       4.01414600       0.00000000 </v>
    <v>       0.00000000       0.00000000       4.04336400 </v>
   </varray>
   <i name="volume">     65.62643976 </i>
   <varray name="rec_basis" >
    <v>       0.24731882      -0.02989430       0.00000000 </v>
    <v>       0.00000000       0.24911899       0.00000000 </v>
    <v>       0.00000000       0.00000000       0.24731882 </v>
   </varray>
  </crystal>
  <varray name="positions" >
   <v>       0.00000000       0.00000000       0.00000000 </v>
   <v>       0.00000000       0.50000000       0.50000000 </v>
   <v>       0.50000000       0.00000000       0.50000000 </v>
   <v>       0.50000000       0.50000000       0.00000000 </v>
  </varray>
 </structure>
</modeling>
